V -t * -v 1.0a5 -a 0
A -t * -n 1 -p 0 -o 0x7fffffff -c 30 -a 1
A -t * -h 1 -m 1073741823 -s 0
c -t * -i 0 -n Orange
c -t * -i 1 -n Red
c -t * -i 2 -n Green
c -t * -i 3 -n Yellow
n -t * -a 4 -s 4 -S UP -v circle -c black -i black
n -t * -a 0 -s 0 -S UP -v circle -c black -i black
n -t * -a 5 -s 5 -S UP -v circle -c black -i black
n -t * -a 1 -s 1 -S UP -v circle -c black -i black
n -t * -a 2 -s 2 -S UP -v circle -c black -i black
n -t * -a 3 -s 3 -S UP -v circle -c black -i black
l -t * -s 0 -d 2 -S UP -r 1000000 -D 0.01 -c black
l -t * -s 1 -d 2 -S UP -r 512000 -D 0.01 -c black
l -t * -s 2 -d 3 -S UP -r 1000000 -D 0.01 -c black
l -t * -s 3 -d 4 -S UP -r 512000 -D 0.01 -c black
l -t * -s 3 -d 5 -S UP -r 512000 -D 0.01 -c black
+ -t 0.01 -s 4 -d 3 -p ping -e 64 -c 0 -i 0 -a 0 -x {4.0 0.0 -1 ------- null}
- -t 0.01 -s 4 -d 3 -p ping -e 64 -c 0 -i 0 -a 0 -x {4.0 0.0 -1 ------- null}
h -t 0.01 -s 4 -d 3 -p ping -e 64 -c 0 -i 0 -a 0 -x {4.0 0.0 -1 ------- null}
+ -t 0.01 -s 5 -d 3 -p ping -e 64 -c 0 -i 1 -a 0 -x {5.0 1.0 -1 ------- null}
- -t 0.01 -s 5 -d 3 -p ping -e 64 -c 0 -i 1 -a 0 -x {5.0 1.0 -1 ------- null}
h -t 0.01 -s 5 -d 3 -p ping -e 64 -c 0 -i 1 -a 0 -x {5.0 1.0 -1 ------- null}
+ -t 0.02 -s 4 -d 3 -p ping -e 64 -c 0 -i 2 -a 0 -x {4.0 0.0 -1 ------- null}
- -t 0.02 -s 4 -d 3 -p ping -e 64 -c 0 -i 2 -a 0 -x {4.0 0.0 -1 ------- null}
h -t 0.02 -s 4 -d 3 -p ping -e 64 -c 0 -i 2 -a 0 -x {4.0 0.0 -1 ------- null}
+ -t 0.02 -s 5 -d 3 -p ping -e 64 -c 0 -i 3 -a 0 -x {5.0 1.0 -1 ------- null}
- -t 0.02 -s 5 -d 3 -p ping -e 64 -c 0 -i 3 -a 0 -x {5.0 1.0 -1 ------- null}
h -t 0.02 -s 5 -d 3 -p ping -e 64 -c 0 -i 3 -a 0 -x {5.0 1.0 -1 ------- null}
r -t 0.021 -s 4 -d 3 -p ping -e 64 -c 0 -i 0 -a 0 -x {4.0 0.0 -1 ------- null}
+ -t 0.021 -s 3 -d 2 -p ping -e 64 -c 0 -i 0 -a 0 -x {4.0 0.0 -1 ------- null}
- -t 0.021 -s 3 -d 2 -p ping -e 64 -c 0 -i 0 -a 0 -x {4.0 0.0 -1 ------- null}
h -t 0.021 -s 3 -d 2 -p ping -e 64 -c 0 -i 0 -a 0 -x {4.0 0.0 -1 ------- null}
r -t 0.021 -s 5 -d 3 -p ping -e 64 -c 0 -i 1 -a 0 -x {5.0 1.0 -1 ------- null}
+ -t 0.021 -s 3 -d 2 -p ping -e 64 -c 0 -i 1 -a 0 -x {5.0 1.0 -1 ------- null}
- -t 0.021512 -s 3 -d 2 -p ping -e 64 -c 0 -i 1 -a 0 -x {5.0 1.0 -1 ------- null}
h -t 0.021512 -s 3 -d 2 -p ping -e 64 -c 0 -i 1 -a 0 -x {5.0 1.0 -1 ------- null}
+ -t 0.03 -s 4 -d 3 -p ping -e 64 -c 0 -i 4 -a 0 -x {4.0 0.0 -1 ------- null}
- -t 0.03 -s 4 -d 3 -p ping -e 64 -c 0 -i 4 -a 0 -x {4.0 0.0 -1 ------- null}
h -t 0.03 -s 4 -d 3 -p ping -e 64 -c 0 -i 4 -a 0 -x {4.0 0.0 -1 ------- null}
+ -t 0.03 -s 5 -d 3 -p ping -e 64 -c 0 -i 5 -a 0 -x {5.0 1.0 -1 ------- null}
- -t 0.03 -s 5 -d 3 -p ping -e 64 -c 0 -i 5 -a 0 -x {5.0 1.0 -1 ------- null}
h -t 0.03 -s 5 -d 3 -p ping -e 64 -c 0 -i 5 -a 0 -x {5.0 1.0 -1 ------- null}
r -t 0.031 -s 4 -d 3 -p ping -e 64 -c 0 -i 2 -a 0 -x {4.0 0.0 -1 ------- null}
+ -t 0.031 -s 3 -d 2 -p ping -e 64 -c 0 -i 2 -a 0 -x {4.0 0.0 -1 ------- null}
- -t 0.031 -s 3 -d 2 -p ping -e 64 -c 0 -i 2 -a 0 -x {4.0 0.0 -1 ------- null}
h -t 0.031 -s 3 -d 2 -p ping -e 64 -c 0 -i 2 -a 0 -x {4.0 0.0 -1 ------- null}
r -t 0.031 -s 5 -d 3 -p ping -e 64 -c 0 -i 3 -a 0 -x {5.0 1.0 -1 ------- null}
+ -t 0.031 -s 3 -d 2 -p ping -e 64 -c 0 -i 3 -a 0 -x {5.0 1.0 -1 ------- null}
r -t 0.031512 -s 3 -d 2 -p ping -e 64 -c 0 -i 0 -a 0 -x {4.0 0.0 -1 ------- null}
+ -t 0.031512 -s 2 -d 0 -p ping -e 64 -c 0 -i 0 -a 0 -x {4.0 0.0 -1 ------- null}
- -t 0.031512 -s 2 -d 0 -p ping -e 64 -c 0 -i 0 -a 0 -x {4.0 0.0 -1 ------- null}
h -t 0.031512 -s 2 -d 0 -p ping -e 64 -c 0 -i 0 -a 0 -x {4.0 0.0 -1 ------- null}
- -t 0.031512 -s 3 -d 2 -p ping -e 64 -c 0 -i 3 -a 0 -x {5.0 1.0 -1 ------- null}
h -t 0.031512 -s 3 -d 2 -p ping -e 64 -c 0 -i 3 -a 0 -x {5.0 1.0 -1 ------- null}
r -t 0.032024 -s 3 -d 2 -p ping -e 64 -c 0 -i 1 -a 0 -x {5.0 1.0 -1 ------- null}
+ -t 0.032024 -s 2 -d 1 -p ping -e 64 -c 0 -i 1 -a 0 -x {5.0 1.0 -1 ------- null}
- -t 0.032024 -s 2 -d 1 -p ping -e 64 -c 0 -i 1 -a 0 -x {5.0 1.0 -1 ------- null}
h -t 0.032024 -s 2 -d 1 -p ping -e 64 -c 0 -i 1 -a 0 -x {5.0 1.0 -1 ------- null}
+ -t 0.04 -s 4 -d 3 -p ping -e 64 -c 0 -i 6 -a 0 -x {4.0 0.0 -1 ------- null}
- -t 0.04 -s 4 -d 3 -p ping -e 64 -c 0 -i 6 -a 0 -x {4.0 0.0 -1 ------- null}
h -t 0.04 -s 4 -d 3 -p ping -e 64 -c 0 -i 6 -a 0 -x {4.0 0.0 -1 ------- null}
+ -t 0.04 -s 5 -d 3 -p ping -e 64 -c 0 -i 7 -a 0 -x {5.0 1.0 -1 ------- null}
- -t 0.04 -s 5 -d 3 -p ping -e 64 -c 0 -i 7 -a 0 -x {5.0 1.0 -1 ------- null}
h -t 0.04 -s 5 -d 3 -p ping -e 64 -c 0 -i 7 -a 0 -x {5.0 1.0 -1 ------- null}
r -t 0.041 -s 4 -d 3 -p ping -e 64 -c 0 -i 4 -a 0 -x {4.0 0.0 -1 ------- null}
+ -t 0.041 -s 3 -d 2 -p ping -e 64 -c 0 -i 4 -a 0 -x {4.0 0.0 -1 ------- null}
- -t 0.041 -s 3 -d 2 -p ping -e 64 -c 0 -i 4 -a 0 -x {4.0 0.0 -1 ------- null}
h -t 0.041 -s 3 -d 2 -p ping -e 64 -c 0 -i 4 -a 0 -x {4.0 0.0 -1 ------- null}
r -t 0.041 -s 5 -d 3 -p ping -e 64 -c 0 -i 5 -a 0 -x {5.0 1.0 -1 ------- null}
+ -t 0.041 -s 3 -d 2 -p ping -e 64 -c 0 -i 5 -a 0 -x {5.0 1.0 -1 ------- null}
- -t 0.041512 -s 3 -d 2 -p ping -e 64 -c 0 -i 5 -a 0 -x {5.0 1.0 -1 ------- null}
h -t 0.041512 -s 3 -d 2 -p ping -e 64 -c 0 -i 5 -a 0 -x {5.0 1.0 -1 ------- null}
r -t 0.041512 -s 3 -d 2 -p ping -e 64 -c 0 -i 2 -a 0 -x {4.0 0.0 -1 ------- null}
+ -t 0.041512 -s 2 -d 0 -p ping -e 64 -c 0 -i 2 -a 0 -x {4.0 0.0 -1 ------- null}
- -t 0.041512 -s 2 -d 0 -p ping -e 64 -c 0 -i 2 -a 0 -x {4.0 0.0 -1 ------- null}
h -t 0.041512 -s 2 -d 0 -p ping -e 64 -c 0 -i 2 -a 0 -x {4.0 0.0 -1 ------- null}
r -t 0.042024 -s 2 -d 0 -p ping -e 64 -c 0 -i 0 -a 0 -x {4.0 0.0 -1 ------- null}
+ -t 0.042024 -s 0 -d 2 -p ping -e 64 -c 0 -i 8 -a 0 -x {0.0 4.0 -1 ------- null}
- -t 0.042024 -s 0 -d 2 -p ping -e 64 -c 0 -i 8 -a 0 -x {0.0 4.0 -1 ------- null}
h -t 0.042024 -s 0 -d 2 -p ping -e 64 -c 0 -i 8 -a 0 -x {0.0 4.0 -1 ------- null}
r -t 0.042024 -s 3 -d 2 -p ping -e 64 -c 0 -i 3 -a 0 -x {5.0 1.0 -1 ------- null}
+ -t 0.042024 -s 2 -d 1 -p ping -e 64 -c 0 -i 3 -a 0 -x {5.0 1.0 -1 ------- null}
- -t 0.042024 -s 2 -d 1 -p ping -e 64 -c 0 -i 3 -a 0 -x {5.0 1.0 -1 ------- null}
h -t 0.042024 -s 2 -d 1 -p ping -e 64 -c 0 -i 3 -a 0 -x {5.0 1.0 -1 ------- null}
r -t 0.043024 -s 2 -d 1 -p ping -e 64 -c 0 -i 1 -a 0 -x {5.0 1.0 -1 ------- null}
+ -t 0.043024 -s 1 -d 2 -p ping -e 64 -c 0 -i 9 -a 0 -x {1.0 5.0 -1 ------- null}
- -t 0.043024 -s 1 -d 2 -p ping -e 64 -c 0 -i 9 -a 0 -x {1.0 5.0 -1 ------- null}
h -t 0.043024 -s 1 -d 2 -p ping -e 64 -c 0 -i 9 -a 0 -x {1.0 5.0 -1 ------- null}
+ -t 0.05 -s 4 -d 3 -p ping -e 64 -c 0 -i 10 -a 0 -x {4.0 0.0 -1 ------- null}
- -t 0.05 -s 4 -d 3 -p ping -e 64 -c 0 -i 10 -a 0 -x {4.0 0.0 -1 ------- null}
h -t 0.05 -s 4 -d 3 -p ping -e 64 -c 0 -i 10 -a 0 -x {4.0 0.0 -1 ------- null}
+ -t 0.05 -s 5 -d 3 -p ping -e 64 -c 0 -i 11 -a 0 -x {5.0 1.0 -1 ------- null}
- -t 0.05 -s 5 -d 3 -p ping -e 64 -c 0 -i 11 -a 0 -x {5.0 1.0 -1 ------- null}
h -t 0.05 -s 5 -d 3 -p ping -e 64 -c 0 -i 11 -a 0 -x {5.0 1.0 -1 ------- null}
r -t 0.051 -s 4 -d 3 -p ping -e 64 -c 0 -i 6 -a 0 -x {4.0 0.0 -1 ------- null}
+ -t 0.051 -s 3 -d 2 -p ping -e 64 -c 0 -i 6 -a 0 -x {4.0 0.0 -1 ------- null}
- -t 0.051 -s 3 -d 2 -p ping -e 64 -c 0 -i 6 -a 0 -x {4.0 0.0 -1 ------- null}
h -t 0.051 -s 3 -d 2 -p ping -e 64 -c 0 -i 6 -a 0 -x {4.0 0.0 -1 ------- null}
r -t 0.051 -s 5 -d 3 -p ping -e 64 -c 0 -i 7 -a 0 -x {5.0 1.0 -1 ------- null}
+ -t 0.051 -s 3 -d 2 -p ping -e 64 -c 0 -i 7 -a 0 -x {5.0 1.0 -1 ------- null}
r -t 0.051512 -s 3 -d 2 -p ping -e 64 -c 0 -i 4 -a 0 -x {4.0 0.0 -1 ------- null}
+ -t 0.051512 -s 2 -d 0 -p ping -e 64 -c 0 -i 4 -a 0 -x {4.0 0.0 -1 ------- null}
- -t 0.051512 -s 2 -d 0 -p ping -e 64 -c 0 -i 4 -a 0 -x {4.0 0.0 -1 ------- null}
h -t 0.051512 -s 2 -d 0 -p ping -e 64 -c 0 -i 4 -a 0 -x {4.0 0.0 -1 ------- null}
- -t 0.051512 -s 3 -d 2 -p ping -e 64 -c 0 -i 7 -a 0 -x {5.0 1.0 -1 ------- null}
h -t 0.051512 -s 3 -d 2 -p ping -e 64 -c 0 -i 7 -a 0 -x {5.0 1.0 -1 ------- null}
r -t 0.052024 -s 3 -d 2 -p ping -e 64 -c 0 -i 5 -a 0 -x {5.0 1.0 -1 ------- null}
+ -t 0.052024 -s 2 -d 1 -p ping -e 64 -c 0 -i 5 -a 0 -x {5.0 1.0 -1 ------- null}
- -t 0.052024 -s 2 -d 1 -p ping -e 64 -c 0 -i 5 -a 0 -x {5.0 1.0 -1 ------- null}
h -t 0.052024 -s 2 -d 1 -p ping -e 64 -c 0 -i 5 -a 0 -x {5.0 1.0 -1 ------- null}
r -t 0.052024 -s 2 -d 0 -p ping -e 64 -c 0 -i 2 -a 0 -x {4.0 0.0 -1 ------- null}
+ -t 0.052024 -s 0 -d 2 -p ping -e 64 -c 0 -i 12 -a 0 -x {0.0 4.0 -1 ------- null}
- -t 0.052024 -s 0 -d 2 -p ping -e 64 -c 0 -i 12 -a 0 -x {0.0 4.0 -1 ------- null}
h -t 0.052024 -s 0 -d 2 -p ping -e 64 -c 0 -i 12 -a 0 -x {0.0 4.0 -1 ------- null}
r -t 0.052536 -s 0 -d 2 -p ping -e 64 -c 0 -i 8 -a 0 -x {0.0 4.0 -1 ------- null}
+ -t 0.052536 -s 2 -d 3 -p ping -e 64 -c 0 -i 8 -a 0 -x {0.0 4.0 -1 ------- null}
- -t 0.052536 -s 2 -d 3 -p ping -e 64 -c 0 -i 8 -a 0 -x {0.0 4.0 -1 ------- null}
h -t 0.052536 -s 2 -d 3 -p ping -e 64 -c 0 -i 8 -a 0 -x {0.0 4.0 -1 ------- null}
r -t 0.053024 -s 2 -d 1 -p ping -e 64 -c 0 -i 3 -a 0 -x {5.0 1.0 -1 ------- null}
+ -t 0.053024 -s 1 -d 2 -p ping -e 64 -c 0 -i 13 -a 0 -x {1.0 5.0 -1 ------- null}
- -t 0.053024 -s 1 -d 2 -p ping -e 64 -c 0 -i 13 -a 0 -x {1.0 5.0 -1 ------- null}
h -t 0.053024 -s 1 -d 2 -p ping -e 64 -c 0 -i 13 -a 0 -x {1.0 5.0 -1 ------- null}
r -t 0.054024 -s 1 -d 2 -p ping -e 64 -c 0 -i 9 -a 0 -x {1.0 5.0 -1 ------- null}
+ -t 0.054024 -s 2 -d 3 -p ping -e 64 -c 0 -i 9 -a 0 -x {1.0 5.0 -1 ------- null}
- -t 0.054024 -s 2 -d 3 -p ping -e 64 -c 0 -i 9 -a 0 -x {1.0 5.0 -1 ------- null}
h -t 0.054024 -s 2 -d 3 -p ping -e 64 -c 0 -i 9 -a 0 -x {1.0 5.0 -1 ------- null}
+ -t 0.06 -s 4 -d 3 -p ping -e 64 -c 0 -i 14 -a 0 -x {4.0 0.0 -1 ------- null}
- -t 0.06 -s 4 -d 3 -p ping -e 64 -c 0 -i 14 -a 0 -x {4.0 0.0 -1 ------- null}
h -t 0.06 -s 4 -d 3 -p ping -e 64 -c 0 -i 14 -a 0 -x {4.0 0.0 -1 ------- null}
+ -t 0.06 -s 5 -d 3 -p ping -e 64 -c 0 -i 15 -a 0 -x {5.0 1.0 -1 ------- null}
- -t 0.06 -s 5 -d 3 -p ping -e 64 -c 0 -i 15 -a 0 -x {5.0 1.0 -1 ------- null}
h -t 0.06 -s 5 -d 3 -p ping -e 64 -c 0 -i 15 -a 0 -x {5.0 1.0 -1 ------- null}
r -t 0.061 -s 4 -d 3 -p ping -e 64 -c 0 -i 10 -a 0 -x {4.0 0.0 -1 ------- null}
+ -t 0.061 -s 3 -d 2 -p ping -e 64 -c 0 -i 10 -a 0 -x {4.0 0.0 -1 ------- null}
- -t 0.061 -s 3 -d 2 -p ping -e 64 -c 0 -i 10 -a 0 -x {4.0 0.0 -1 ------- null}
h -t 0.061 -s 3 -d 2 -p ping -e 64 -c 0 -i 10 -a 0 -x {4.0 0.0 -1 ------- null}
r -t 0.061 -s 5 -d 3 -p ping -e 64 -c 0 -i 11 -a 0 -x {5.0 1.0 -1 ------- null}
+ -t 0.061 -s 3 -d 2 -p ping -e 64 -c 0 -i 11 -a 0 -x {5.0 1.0 -1 ------- null}
- -t 0.061512 -s 3 -d 2 -p ping -e 64 -c 0 -i 11 -a 0 -x {5.0 1.0 -1 ------- null}
h -t 0.061512 -s 3 -d 2 -p ping -e 64 -c 0 -i 11 -a 0 -x {5.0 1.0 -1 ------- null}
r -t 0.061512 -s 3 -d 2 -p ping -e 64 -c 0 -i 6 -a 0 -x {4.0 0.0 -1 ------- null}
+ -t 0.061512 -s 2 -d 0 -p ping -e 64 -c 0 -i 6 -a 0 -x {4.0 0.0 -1 ------- null}
- -t 0.061512 -s 2 -d 0 -p ping -e 64 -c 0 -i 6 -a 0 -x {4.0 0.0 -1 ------- null}
h -t 0.061512 -s 2 -d 0 -p ping -e 64 -c 0 -i 6 -a 0 -x {4.0 0.0 -1 ------- null}
r -t 0.062024 -s 2 -d 0 -p ping -e 64 -c 0 -i 4 -a 0 -x {4.0 0.0 -1 ------- null}
+ -t 0.062024 -s 0 -d 2 -p ping -e 64 -c 0 -i 16 -a 0 -x {0.0 4.0 -1 ------- null}
- -t 0.062024 -s 0 -d 2 -p ping -e 64 -c 0 -i 16 -a 0 -x {0.0 4.0 -1 ------- null}
h -t 0.062024 -s 0 -d 2 -p ping -e 64 -c 0 -i 16 -a 0 -x {0.0 4.0 -1 ------- null}
r -t 0.062024 -s 3 -d 2 -p ping -e 64 -c 0 -i 7 -a 0 -x {5.0 1.0 -1 ------- null}
+ -t 0.062024 -s 2 -d 1 -p ping -e 64 -c 0 -i 7 -a 0 -x {5.0 1.0 -1 ------- null}
- -t 0.062024 -s 2 -d 1 -p ping -e 64 -c 0 -i 7 -a 0 -x {5.0 1.0 -1 ------- null}
h -t 0.062024 -s 2 -d 1 -p ping -e 64 -c 0 -i 7 -a 0 -x {5.0 1.0 -1 ------- null}
r -t 0.062536 -s 0 -d 2 -p ping -e 64 -c 0 -i 12 -a 0 -x {0.0 4.0 -1 ------- null}
+ -t 0.062536 -s 2 -d 3 -p ping -e 64 -c 0 -i 12 -a 0 -x {0.0 4.0 -1 ------- null}
- -t 0.062536 -s 2 -d 3 -p ping -e 64 -c 0 -i 12 -a 0 -x {0.0 4.0 -1 ------- null}
h -t 0.062536 -s 2 -d 3 -p ping -e 64 -c 0 -i 12 -a 0 -x {0.0 4.0 -1 ------- null}
r -t 0.063024 -s 2 -d 1 -p ping -e 64 -c 0 -i 5 -a 0 -x {5.0 1.0 -1 ------- null}
+ -t 0.063024 -s 1 -d 2 -p ping -e 64 -c 0 -i 17 -a 0 -x {1.0 5.0 -1 ------- null}
- -t 0.063024 -s 1 -d 2 -p ping -e 64 -c 0 -i 17 -a 0 -x {1.0 5.0 -1 ------- null}
h -t 0.063024 -s 1 -d 2 -p ping -e 64 -c 0 -i 17 -a 0 -x {1.0 5.0 -1 ------- null}
r -t 0.063048 -s 2 -d 3 -p ping -e 64 -c 0 -i 8 -a 0 -x {0.0 4.0 -1 ------- null}
+ -t 0.063048 -s 3 -d 4 -p ping -e 64 -c 0 -i 8 -a 0 -x {0.0 4.0 -1 ------- null}
- -t 0.063048 -s 3 -d 4 -p ping -e 64 -c 0 -i 8 -a 0 -x {0.0 4.0 -1 ------- null}
h -t 0.063048 -s 3 -d 4 -p ping -e 64 -c 0 -i 8 -a 0 -x {0.0 4.0 -1 ------- null}
r -t 0.064024 -s 1 -d 2 -p ping -e 64 -c 0 -i 13 -a 0 -x {1.0 5.0 -1 ------- null}
+ -t 0.064024 -s 2 -d 3 -p ping -e 64 -c 0 -i 13 -a 0 -x {1.0 5.0 -1 ------- null}
- -t 0.064024 -s 2 -d 3 -p ping -e 64 -c 0 -i 13 -a 0 -x {1.0 5.0 -1 ------- null}
h -t 0.064024 -s 2 -d 3 -p ping -e 64 -c 0 -i 13 -a 0 -x {1.0 5.0 -1 ------- null}
r -t 0.064536 -s 2 -d 3 -p ping -e 64 -c 0 -i 9 -a 0 -x {1.0 5.0 -1 ------- null}
+ -t 0.064536 -s 3 -d 5 -p ping -e 64 -c 0 -i 9 -a 0 -x {1.0 5.0 -1 ------- null}
- -t 0.064536 -s 3 -d 5 -p ping -e 64 -c 0 -i 9 -a 0 -x {1.0 5.0 -1 ------- null}
h -t 0.064536 -s 3 -d 5 -p ping -e 64 -c 0 -i 9 -a 0 -x {1.0 5.0 -1 ------- null}
+ -t 0.07 -s 4 -d 3 -p ping -e 64 -c 0 -i 18 -a 0 -x {4.0 0.0 -1 ------- null}
- -t 0.07 -s 4 -d 3 -p ping -e 64 -c 0 -i 18 -a 0 -x {4.0 0.0 -1 ------- null}
h -t 0.07 -s 4 -d 3 -p ping -e 64 -c 0 -i 18 -a 0 -x {4.0 0.0 -1 ------- null}
+ -t 0.07 -s 5 -d 3 -p ping -e 64 -c 0 -i 19 -a 0 -x {5.0 1.0 -1 ------- null}
- -t 0.07 -s 5 -d 3 -p ping -e 64 -c 0 -i 19 -a 0 -x {5.0 1.0 -1 ------- null}
h -t 0.07 -s 5 -d 3 -p ping -e 64 -c 0 -i 19 -a 0 -x {5.0 1.0 -1 ------- null}
r -t 0.071 -s 4 -d 3 -p ping -e 64 -c 0 -i 14 -a 0 -x {4.0 0.0 -1 ------- null}
+ -t 0.071 -s 3 -d 2 -p ping -e 64 -c 0 -i 14 -a 0 -x {4.0 0.0 -1 ------- null}
- -t 0.071 -s 3 -d 2 -p ping -e 64 -c 0 -i 14 -a 0 -x {4.0 0.0 -1 ------- null}
h -t 0.071 -s 3 -d 2 -p ping -e 64 -c 0 -i 14 -a 0 -x {4.0 0.0 -1 ------- null}
r -t 0.071 -s 5 -d 3 -p ping -e 64 -c 0 -i 15 -a 0 -x {5.0 1.0 -1 ------- null}
+ -t 0.071 -s 3 -d 2 -p ping -e 64 -c 0 -i 15 -a 0 -x {5.0 1.0 -1 ------- null}
r -t 0.071512 -s 3 -d 2 -p ping -e 64 -c 0 -i 10 -a 0 -x {4.0 0.0 -1 ------- null}
+ -t 0.071512 -s 2 -d 0 -p ping -e 64 -c 0 -i 10 -a 0 -x {4.0 0.0 -1 ------- null}
- -t 0.071512 -s 2 -d 0 -p ping -e 64 -c 0 -i 10 -a 0 -x {4.0 0.0 -1 ------- null}
h -t 0.071512 -s 2 -d 0 -p ping -e 64 -c 0 -i 10 -a 0 -x {4.0 0.0 -1 ------- null}
- -t 0.071512 -s 3 -d 2 -p ping -e 64 -c 0 -i 15 -a 0 -x {5.0 1.0 -1 ------- null}
h -t 0.071512 -s 3 -d 2 -p ping -e 64 -c 0 -i 15 -a 0 -x {5.0 1.0 -1 ------- null}
r -t 0.072024 -s 3 -d 2 -p ping -e 64 -c 0 -i 11 -a 0 -x {5.0 1.0 -1 ------- null}
+ -t 0.072024 -s 2 -d 1 -p ping -e 64 -c 0 -i 11 -a 0 -x {5.0 1.0 -1 ------- null}
- -t 0.072024 -s 2 -d 1 -p ping -e 64 -c 0 -i 11 -a 0 -x {5.0 1.0 -1 ------- null}
h -t 0.072024 -s 2 -d 1 -p ping -e 64 -c 0 -i 11 -a 0 -x {5.0 1.0 -1 ------- null}
r -t 0.072024 -s 2 -d 0 -p ping -e 64 -c 0 -i 6 -a 0 -x {4.0 0.0 -1 ------- null}
+ -t 0.072024 -s 0 -d 2 -p ping -e 64 -c 0 -i 20 -a 0 -x {0.0 4.0 -1 ------- null}
- -t 0.072024 -s 0 -d 2 -p ping -e 64 -c 0 -i 20 -a 0 -x {0.0 4.0 -1 ------- null}
h -t 0.072024 -s 0 -d 2 -p ping -e 64 -c 0 -i 20 -a 0 -x {0.0 4.0 -1 ------- null}
r -t 0.072536 -s 0 -d 2 -p ping -e 64 -c 0 -i 16 -a 0 -x {0.0 4.0 -1 ------- null}
+ -t 0.072536 -s 2 -d 3 -p ping -e 64 -c 0 -i 16 -a 0 -x {0.0 4.0 -1 ------- null}
- -t 0.072536 -s 2 -d 3 -p ping -e 64 -c 0 -i 16 -a 0 -x {0.0 4.0 -1 ------- null}
h -t 0.072536 -s 2 -d 3 -p ping -e 64 -c 0 -i 16 -a 0 -x {0.0 4.0 -1 ------- null}
r -t 0.073024 -s 2 -d 1 -p ping -e 64 -c 0 -i 7 -a 0 -x {5.0 1.0 -1 ------- null}
+ -t 0.073024 -s 1 -d 2 -p ping -e 64 -c 0 -i 21 -a 0 -x {1.0 5.0 -1 ------- null}
- -t 0.073024 -s 1 -d 2 -p ping -e 64 -c 0 -i 21 -a 0 -x {1.0 5.0 -1 ------- null}
h -t 0.073024 -s 1 -d 2 -p ping -e 64 -c 0 -i 21 -a 0 -x {1.0 5.0 -1 ------- null}
r -t 0.073048 -s 2 -d 3 -p ping -e 64 -c 0 -i 12 -a 0 -x {0.0 4.0 -1 ------- null}
+ -t 0.073048 -s 3 -d 4 -p ping -e 64 -c 0 -i 12 -a 0 -x {0.0 4.0 -1 ------- null}
- -t 0.073048 -s 3 -d 4 -p ping -e 64 -c 0 -i 12 -a 0 -x {0.0 4.0 -1 ------- null}
h -t 0.073048 -s 3 -d 4 -p ping -e 64 -c 0 -i 12 -a 0 -x {0.0 4.0 -1 ------- null}
r -t 0.074024 -s 1 -d 2 -p ping -e 64 -c 0 -i 17 -a 0 -x {1.0 5.0 -1 ------- null}
+ -t 0.074024 -s 2 -d 3 -p ping -e 64 -c 0 -i 17 -a 0 -x {1.0 5.0 -1 ------- null}
- -t 0.074024 -s 2 -d 3 -p ping -e 64 -c 0 -i 17 -a 0 -x {1.0 5.0 -1 ------- null}
h -t 0.074024 -s 2 -d 3 -p ping -e 64 -c 0 -i 17 -a 0 -x {1.0 5.0 -1 ------- null}
r -t 0.074048 -s 3 -d 4 -p ping -e 64 -c 0 -i 8 -a 0 -x {0.0 4.0 -1 ------- null}
r -t 0.074536 -s 2 -d 3 -p ping -e 64 -c 0 -i 13 -a 0 -x {1.0 5.0 -1 ------- null}
+ -t 0.074536 -s 3 -d 5 -p ping -e 64 -c 0 -i 13 -a 0 -x {1.0 5.0 -1 ------- null}
- -t 0.074536 -s 3 -d 5 -p ping -e 64 -c 0 -i 13 -a 0 -x {1.0 5.0 -1 ------- null}
h -t 0.074536 -s 3 -d 5 -p ping -e 64 -c 0 -i 13 -a 0 -x {1.0 5.0 -1 ------- null}
r -t 0.075536 -s 3 -d 5 -p ping -e 64 -c 0 -i 9 -a 0 -x {1.0 5.0 -1 ------- null}
+ -t 0.08 -s 4 -d 3 -p ping -e 64 -c 0 -i 22 -a 0 -x {4.0 0.0 -1 ------- null}
- -t 0.08 -s 4 -d 3 -p ping -e 64 -c 0 -i 22 -a 0 -x {4.0 0.0 -1 ------- null}
h -t 0.08 -s 4 -d 3 -p ping -e 64 -c 0 -i 22 -a 0 -x {4.0 0.0 -1 ------- null}
+ -t 0.08 -s 5 -d 3 -p ping -e 64 -c 0 -i 23 -a 0 -x {5.0 1.0 -1 ------- null}
- -t 0.08 -s 5 -d 3 -p ping -e 64 -c 0 -i 23 -a 0 -x {5.0 1.0 -1 ------- null}
h -t 0.08 -s 5 -d 3 -p ping -e 64 -c 0 -i 23 -a 0 -x {5.0 1.0 -1 ------- null}
r -t 0.081 -s 4 -d 3 -p ping -e 64 -c 0 -i 18 -a 0 -x {4.0 0.0 -1 ------- null}
+ -t 0.081 -s 3 -d 2 -p ping -e 64 -c 0 -i 18 -a 0 -x {4.0 0.0 -1 ------- null}
- -t 0.081 -s 3 -d 2 -p ping -e 64 -c 0 -i 18 -a 0 -x {4.0 0.0 -1 ------- null}
h -t 0.081 -s 3 -d 2 -p ping -e 64 -c 0 -i 18 -a 0 -x {4.0 0.0 -1 ------- null}
r -t 0.081 -s 5 -d 3 -p ping -e 64 -c 0 -i 19 -a 0 -x {5.0 1.0 -1 ------- null}
+ -t 0.081 -s 3 -d 2 -p ping -e 64 -c 0 -i 19 -a 0 -x {5.0 1.0 -1 ------- null}
r -t 0.081512 -s 3 -d 2 -p ping -e 64 -c 0 -i 14 -a 0 -x {4.0 0.0 -1 ------- null}
+ -t 0.081512 -s 2 -d 0 -p ping -e 64 -c 0 -i 14 -a 0 -x {4.0 0.0 -1 ------- null}
- -t 0.081512 -s 2 -d 0 -p ping -e 64 -c 0 -i 14 -a 0 -x {4.0 0.0 -1 ------- null}
h -t 0.081512 -s 2 -d 0 -p ping -e 64 -c 0 -i 14 -a 0 -x {4.0 0.0 -1 ------- null}
- -t 0.081512 -s 3 -d 2 -p ping -e 64 -c 0 -i 19 -a 0 -x {5.0 1.0 -1 ------- null}
h -t 0.081512 -s 3 -d 2 -p ping -e 64 -c 0 -i 19 -a 0 -x {5.0 1.0 -1 ------- null}
r -t 0.082024 -s 2 -d 0 -p ping -e 64 -c 0 -i 10 -a 0 -x {4.0 0.0 -1 ------- null}
+ -t 0.082024 -s 0 -d 2 -p ping -e 64 -c 0 -i 24 -a 0 -x {0.0 4.0 -1 ------- null}
- -t 0.082024 -s 0 -d 2 -p ping -e 64 -c 0 -i 24 -a 0 -x {0.0 4.0 -1 ------- null}
h -t 0.082024 -s 0 -d 2 -p ping -e 64 -c 0 -i 24 -a 0 -x {0.0 4.0 -1 ------- null}
r -t 0.082024 -s 3 -d 2 -p ping -e 64 -c 0 -i 15 -a 0 -x {5.0 1.0 -1 ------- null}
+ -t 0.082024 -s 2 -d 1 -p ping -e 64 -c 0 -i 15 -a 0 -x {5.0 1.0 -1 ------- null}
- -t 0.082024 -s 2 -d 1 -p ping -e 64 -c 0 -i 15 -a 0 -x {5.0 1.0 -1 ------- null}
h -t 0.082024 -s 2 -d 1 -p ping -e 64 -c 0 -i 15 -a 0 -x {5.0 1.0 -1 ------- null}
r -t 0.082536 -s 0 -d 2 -p ping -e 64 -c 0 -i 20 -a 0 -x {0.0 4.0 -1 ------- null}
+ -t 0.082536 -s 2 -d 3 -p ping -e 64 -c 0 -i 20 -a 0 -x {0.0 4.0 -1 ------- null}
- -t 0.082536 -s 2 -d 3 -p ping -e 64 -c 0 -i 20 -a 0 -x {0.0 4.0 -1 ------- null}
h -t 0.082536 -s 2 -d 3 -p ping -e 64 -c 0 -i 20 -a 0 -x {0.0 4.0 -1 ------- null}
r -t 0.083024 -s 2 -d 1 -p ping -e 64 -c 0 -i 11 -a 0 -x {5.0 1.0 -1 ------- null}
+ -t 0.083024 -s 1 -d 2 -p ping -e 64 -c 0 -i 25 -a 0 -x {1.0 5.0 -1 ------- null}
- -t 0.083024 -s 1 -d 2 -p ping -e 64 -c 0 -i 25 -a 0 -x {1.0 5.0 -1 ------- null}
h -t 0.083024 -s 1 -d 2 -p ping -e 64 -c 0 -i 25 -a 0 -x {1.0 5.0 -1 ------- null}
r -t 0.083048 -s 2 -d 3 -p ping -e 64 -c 0 -i 16 -a 0 -x {0.0 4.0 -1 ------- null}
+ -t 0.083048 -s 3 -d 4 -p ping -e 64 -c 0 -i 16 -a 0 -x {0.0 4.0 -1 ------- null}
- -t 0.083048 -s 3 -d 4 -p ping -e 64 -c 0 -i 16 -a 0 -x {0.0 4.0 -1 ------- null}
h -t 0.083048 -s 3 -d 4 -p ping -e 64 -c 0 -i 16 -a 0 -x {0.0 4.0 -1 ------- null}
r -t 0.084024 -s 1 -d 2 -p ping -e 64 -c 0 -i 21 -a 0 -x {1.0 5.0 -1 ------- null}
+ -t 0.084024 -s 2 -d 3 -p ping -e 64 -c 0 -i 21 -a 0 -x {1.0 5.0 -1 ------- null}
- -t 0.084024 -s 2 -d 3 -p ping -e 64 -c 0 -i 21 -a 0 -x {1.0 5.0 -1 ------- null}
h -t 0.084024 -s 2 -d 3 -p ping -e 64 -c 0 -i 21 -a 0 -x {1.0 5.0 -1 ------- null}
r -t 0.084048 -s 3 -d 4 -p ping -e 64 -c 0 -i 12 -a 0 -x {0.0 4.0 -1 ------- null}
r -t 0.084536 -s 2 -d 3 -p ping -e 64 -c 0 -i 17 -a 0 -x {1.0 5.0 -1 ------- null}
+ -t 0.084536 -s 3 -d 5 -p ping -e 64 -c 0 -i 17 -a 0 -x {1.0 5.0 -1 ------- null}
- -t 0.084536 -s 3 -d 5 -p ping -e 64 -c 0 -i 17 -a 0 -x {1.0 5.0 -1 ------- null}
h -t 0.084536 -s 3 -d 5 -p ping -e 64 -c 0 -i 17 -a 0 -x {1.0 5.0 -1 ------- null}
r -t 0.085536 -s 3 -d 5 -p ping -e 64 -c 0 -i 13 -a 0 -x {1.0 5.0 -1 ------- null}
+ -t 0.09 -s 4 -d 3 -p ping -e 64 -c 0 -i 26 -a 0 -x {4.0 0.0 -1 ------- null}
- -t 0.09 -s 4 -d 3 -p ping -e 64 -c 0 -i 26 -a 0 -x {4.0 0.0 -1 ------- null}
h -t 0.09 -s 4 -d 3 -p ping -e 64 -c 0 -i 26 -a 0 -x {4.0 0.0 -1 ------- null}
+ -t 0.09 -s 5 -d 3 -p ping -e 64 -c 0 -i 27 -a 0 -x {5.0 1.0 -1 ------- null}
- -t 0.09 -s 5 -d 3 -p ping -e 64 -c 0 -i 27 -a 0 -x {5.0 1.0 -1 ------- null}
h -t 0.09 -s 5 -d 3 -p ping -e 64 -c 0 -i 27 -a 0 -x {5.0 1.0 -1 ------- null}
r -t 0.091 -s 4 -d 3 -p ping -e 64 -c 0 -i 22 -a 0 -x {4.0 0.0 -1 ------- null}
+ -t 0.091 -s 3 -d 2 -p ping -e 64 -c 0 -i 22 -a 0 -x {4.0 0.0 -1 ------- null}
- -t 0.091 -s 3 -d 2 -p ping -e 64 -c 0 -i 22 -a 0 -x {4.0 0.0 -1 ------- null}
h -t 0.091 -s 3 -d 2 -p ping -e 64 -c 0 -i 22 -a 0 -x {4.0 0.0 -1 ------- null}
r -t 0.091 -s 5 -d 3 -p ping -e 64 -c 0 -i 23 -a 0 -x {5.0 1.0 -1 ------- null}
+ -t 0.091 -s 3 -d 2 -p ping -e 64 -c 0 -i 23 -a 0 -x {5.0 1.0 -1 ------- null}
- -t 0.091512 -s 3 -d 2 -p ping -e 64 -c 0 -i 23 -a 0 -x {5.0 1.0 -1 ------- null}
h -t 0.091512 -s 3 -d 2 -p ping -e 64 -c 0 -i 23 -a 0 -x {5.0 1.0 -1 ------- null}
r -t 0.091512 -s 3 -d 2 -p ping -e 64 -c 0 -i 18 -a 0 -x {4.0 0.0 -1 ------- null}
+ -t 0.091512 -s 2 -d 0 -p ping -e 64 -c 0 -i 18 -a 0 -x {4.0 0.0 -1 ------- null}
- -t 0.091512 -s 2 -d 0 -p ping -e 64 -c 0 -i 18 -a 0 -x {4.0 0.0 -1 ------- null}
h -t 0.091512 -s 2 -d 0 -p ping -e 64 -c 0 -i 18 -a 0 -x {4.0 0.0 -1 ------- null}
r -t 0.092024 -s 2 -d 0 -p ping -e 64 -c 0 -i 14 -a 0 -x {4.0 0.0 -1 ------- null}
+ -t 0.092024 -s 0 -d 2 -p ping -e 64 -c 0 -i 28 -a 0 -x {0.0 4.0 -1 ------- null}
- -t 0.092024 -s 0 -d 2 -p ping -e 64 -c 0 -i 28 -a 0 -x {0.0 4.0 -1 ------- null}
h -t 0.092024 -s 0 -d 2 -p ping -e 64 -c 0 -i 28 -a 0 -x {0.0 4.0 -1 ------- null}
r -t 0.092024 -s 3 -d 2 -p ping -e 64 -c 0 -i 19 -a 0 -x {5.0 1.0 -1 ------- null}
+ -t 0.092024 -s 2 -d 1 -p ping -e 64 -c 0 -i 19 -a 0 -x {5.0 1.0 -1 ------- null}
- -t 0.092024 -s 2 -d 1 -p ping -e 64 -c 0 -i 19 -a 0 -x {5.0 1.0 -1 ------- null}
h -t 0.092024 -s 2 -d 1 -p ping -e 64 -c 0 -i 19 -a 0 -x {5.0 1.0 -1 ------- null}
r -t 0.092536 -s 0 -d 2 -p ping -e 64 -c 0 -i 24 -a 0 -x {0.0 4.0 -1 ------- null}
+ -t 0.092536 -s 2 -d 3 -p ping -e 64 -c 0 -i 24 -a 0 -x {0.0 4.0 -1 ------- null}
- -t 0.092536 -s 2 -d 3 -p ping -e 64 -c 0 -i 24 -a 0 -x {0.0 4.0 -1 ------- null}
h -t 0.092536 -s 2 -d 3 -p ping -e 64 -c 0 -i 24 -a 0 -x {0.0 4.0 -1 ------- null}
r -t 0.093024 -s 2 -d 1 -p ping -e 64 -c 0 -i 15 -a 0 -x {5.0 1.0 -1 ------- null}
+ -t 0.093024 -s 1 -d 2 -p ping -e 64 -c 0 -i 29 -a 0 -x {1.0 5.0 -1 ------- null}
- -t 0.093024 -s 1 -d 2 -p ping -e 64 -c 0 -i 29 -a 0 -x {1.0 5.0 -1 ------- null}
h -t 0.093024 -s 1 -d 2 -p ping -e 64 -c 0 -i 29 -a 0 -x {1.0 5.0 -1 ------- null}
r -t 0.093048 -s 2 -d 3 -p ping -e 64 -c 0 -i 20 -a 0 -x {0.0 4.0 -1 ------- null}
+ -t 0.093048 -s 3 -d 4 -p ping -e 64 -c 0 -i 20 -a 0 -x {0.0 4.0 -1 ------- null}
- -t 0.093048 -s 3 -d 4 -p ping -e 64 -c 0 -i 20 -a 0 -x {0.0 4.0 -1 ------- null}
h -t 0.093048 -s 3 -d 4 -p ping -e 64 -c 0 -i 20 -a 0 -x {0.0 4.0 -1 ------- null}
r -t 0.094024 -s 1 -d 2 -p ping -e 64 -c 0 -i 25 -a 0 -x {1.0 5.0 -1 ------- null}
+ -t 0.094024 -s 2 -d 3 -p ping -e 64 -c 0 -i 25 -a 0 -x {1.0 5.0 -1 ------- null}
- -t 0.094024 -s 2 -d 3 -p ping -e 64 -c 0 -i 25 -a 0 -x {1.0 5.0 -1 ------- null}
h -t 0.094024 -s 2 -d 3 -p ping -e 64 -c 0 -i 25 -a 0 -x {1.0 5.0 -1 ------- null}
r -t 0.094048 -s 3 -d 4 -p ping -e 64 -c 0 -i 16 -a 0 -x {0.0 4.0 -1 ------- null}
r -t 0.094536 -s 2 -d 3 -p ping -e 64 -c 0 -i 21 -a 0 -x {1.0 5.0 -1 ------- null}
+ -t 0.094536 -s 3 -d 5 -p ping -e 64 -c 0 -i 21 -a 0 -x {1.0 5.0 -1 ------- null}
- -t 0.094536 -s 3 -d 5 -p ping -e 64 -c 0 -i 21 -a 0 -x {1.0 5.0 -1 ------- null}
h -t 0.094536 -s 3 -d 5 -p ping -e 64 -c 0 -i 21 -a 0 -x {1.0 5.0 -1 ------- null}
r -t 0.095536 -s 3 -d 5 -p ping -e 64 -c 0 -i 17 -a 0 -x {1.0 5.0 -1 ------- null}
+ -t 0.1 -s 4 -d 3 -p ping -e 64 -c 0 -i 30 -a 0 -x {4.0 0.0 -1 ------- null}
- -t 0.1 -s 4 -d 3 -p ping -e 64 -c 0 -i 30 -a 0 -x {4.0 0.0 -1 ------- null}
h -t 0.1 -s 4 -d 3 -p ping -e 64 -c 0 -i 30 -a 0 -x {4.0 0.0 -1 ------- null}
+ -t 0.1 -s 5 -d 3 -p ping -e 64 -c 0 -i 31 -a 0 -x {5.0 1.0 -1 ------- null}
- -t 0.1 -s 5 -d 3 -p ping -e 64 -c 0 -i 31 -a 0 -x {5.0 1.0 -1 ------- null}
h -t 0.1 -s 5 -d 3 -p ping -e 64 -c 0 -i 31 -a 0 -x {5.0 1.0 -1 ------- null}
r -t 0.101 -s 4 -d 3 -p ping -e 64 -c 0 -i 26 -a 0 -x {4.0 0.0 -1 ------- null}
+ -t 0.101 -s 3 -d 2 -p ping -e 64 -c 0 -i 26 -a 0 -x {4.0 0.0 -1 ------- null}
- -t 0.101 -s 3 -d 2 -p ping -e 64 -c 0 -i 26 -a 0 -x {4.0 0.0 -1 ------- null}
h -t 0.101 -s 3 -d 2 -p ping -e 64 -c 0 -i 26 -a 0 -x {4.0 0.0 -1 ------- null}
r -t 0.101 -s 5 -d 3 -p ping -e 64 -c 0 -i 27 -a 0 -x {5.0 1.0 -1 ------- null}
+ -t 0.101 -s 3 -d 2 -p ping -e 64 -c 0 -i 27 -a 0 -x {5.0 1.0 -1 ------- null}
r -t 0.101512 -s 3 -d 2 -p ping -e 64 -c 0 -i 22 -a 0 -x {4.0 0.0 -1 ------- null}
+ -t 0.101512 -s 2 -d 0 -p ping -e 64 -c 0 -i 22 -a 0 -x {4.0 0.0 -1 ------- null}
- -t 0.101512 -s 2 -d 0 -p ping -e 64 -c 0 -i 22 -a 0 -x {4.0 0.0 -1 ------- null}
h -t 0.101512 -s 2 -d 0 -p ping -e 64 -c 0 -i 22 -a 0 -x {4.0 0.0 -1 ------- null}
- -t 0.101512 -s 3 -d 2 -p ping -e 64 -c 0 -i 27 -a 0 -x {5.0 1.0 -1 ------- null}
h -t 0.101512 -s 3 -d 2 -p ping -e 64 -c 0 -i 27 -a 0 -x {5.0 1.0 -1 ------- null}
r -t 0.102024 -s 3 -d 2 -p ping -e 64 -c 0 -i 23 -a 0 -x {5.0 1.0 -1 ------- null}
+ -t 0.102024 -s 2 -d 1 -p ping -e 64 -c 0 -i 23 -a 0 -x {5.0 1.0 -1 ------- null}
- -t 0.102024 -s 2 -d 1 -p ping -e 64 -c 0 -i 23 -a 0 -x {5.0 1.0 -1 ------- null}
h -t 0.102024 -s 2 -d 1 -p ping -e 64 -c 0 -i 23 -a 0 -x {5.0 1.0 -1 ------- null}
r -t 0.102024 -s 2 -d 0 -p ping -e 64 -c 0 -i 18 -a 0 -x {4.0 0.0 -1 ------- null}
+ -t 0.102024 -s 0 -d 2 -p ping -e 64 -c 0 -i 32 -a 0 -x {0.0 4.0 -1 ------- null}
- -t 0.102024 -s 0 -d 2 -p ping -e 64 -c 0 -i 32 -a 0 -x {0.0 4.0 -1 ------- null}
h -t 0.102024 -s 0 -d 2 -p ping -e 64 -c 0 -i 32 -a 0 -x {0.0 4.0 -1 ------- null}
r -t 0.102536 -s 0 -d 2 -p ping -e 64 -c 0 -i 28 -a 0 -x {0.0 4.0 -1 ------- null}
+ -t 0.102536 -s 2 -d 3 -p ping -e 64 -c 0 -i 28 -a 0 -x {0.0 4.0 -1 ------- null}
- -t 0.102536 -s 2 -d 3 -p ping -e 64 -c 0 -i 28 -a 0 -x {0.0 4.0 -1 ------- null}
h -t 0.102536 -s 2 -d 3 -p ping -e 64 -c 0 -i 28 -a 0 -x {0.0 4.0 -1 ------- null}
r -t 0.103024 -s 2 -d 1 -p ping -e 64 -c 0 -i 19 -a 0 -x {5.0 1.0 -1 ------- null}
+ -t 0.103024 -s 1 -d 2 -p ping -e 64 -c 0 -i 33 -a 0 -x {1.0 5.0 -1 ------- null}
- -t 0.103024 -s 1 -d 2 -p ping -e 64 -c 0 -i 33 -a 0 -x {1.0 5.0 -1 ------- null}
h -t 0.103024 -s 1 -d 2 -p ping -e 64 -c 0 -i 33 -a 0 -x {1.0 5.0 -1 ------- null}
r -t 0.103048 -s 2 -d 3 -p ping -e 64 -c 0 -i 24 -a 0 -x {0.0 4.0 -1 ------- null}
+ -t 0.103048 -s 3 -d 4 -p ping -e 64 -c 0 -i 24 -a 0 -x {0.0 4.0 -1 ------- null}
- -t 0.103048 -s 3 -d 4 -p ping -e 64 -c 0 -i 24 -a 0 -x {0.0 4.0 -1 ------- null}
h -t 0.103048 -s 3 -d 4 -p ping -e 64 -c 0 -i 24 -a 0 -x {0.0 4.0 -1 ------- null}
r -t 0.104024 -s 1 -d 2 -p ping -e 64 -c 0 -i 29 -a 0 -x {1.0 5.0 -1 ------- null}
+ -t 0.104024 -s 2 -d 3 -p ping -e 64 -c 0 -i 29 -a 0 -x {1.0 5.0 -1 ------- null}
- -t 0.104024 -s 2 -d 3 -p ping -e 64 -c 0 -i 29 -a 0 -x {1.0 5.0 -1 ------- null}
h -t 0.104024 -s 2 -d 3 -p ping -e 64 -c 0 -i 29 -a 0 -x {1.0 5.0 -1 ------- null}
r -t 0.104048 -s 3 -d 4 -p ping -e 64 -c 0 -i 20 -a 0 -x {0.0 4.0 -1 ------- null}
r -t 0.104536 -s 2 -d 3 -p ping -e 64 -c 0 -i 25 -a 0 -x {1.0 5.0 -1 ------- null}
+ -t 0.104536 -s 3 -d 5 -p ping -e 64 -c 0 -i 25 -a 0 -x {1.0 5.0 -1 ------- null}
- -t 0.104536 -s 3 -d 5 -p ping -e 64 -c 0 -i 25 -a 0 -x {1.0 5.0 -1 ------- null}
h -t 0.104536 -s 3 -d 5 -p ping -e 64 -c 0 -i 25 -a 0 -x {1.0 5.0 -1 ------- null}
r -t 0.105536 -s 3 -d 5 -p ping -e 64 -c 0 -i 21 -a 0 -x {1.0 5.0 -1 ------- null}
+ -t 0.11 -s 4 -d 3 -p ping -e 64 -c 0 -i 34 -a 0 -x {4.0 0.0 -1 ------- null}
- -t 0.11 -s 4 -d 3 -p ping -e 64 -c 0 -i 34 -a 0 -x {4.0 0.0 -1 ------- null}
h -t 0.11 -s 4 -d 3 -p ping -e 64 -c 0 -i 34 -a 0 -x {4.0 0.0 -1 ------- null}
+ -t 0.11 -s 5 -d 3 -p ping -e 64 -c 0 -i 35 -a 0 -x {5.0 1.0 -1 ------- null}
- -t 0.11 -s 5 -d 3 -p ping -e 64 -c 0 -i 35 -a 0 -x {5.0 1.0 -1 ------- null}
h -t 0.11 -s 5 -d 3 -p ping -e 64 -c 0 -i 35 -a 0 -x {5.0 1.0 -1 ------- null}
r -t 0.111 -s 4 -d 3 -p ping -e 64 -c 0 -i 30 -a 0 -x {4.0 0.0 -1 ------- null}
+ -t 0.111 -s 3 -d 2 -p ping -e 64 -c 0 -i 30 -a 0 -x {4.0 0.0 -1 ------- null}
- -t 0.111 -s 3 -d 2 -p ping -e 64 -c 0 -i 30 -a 0 -x {4.0 0.0 -1 ------- null}
h -t 0.111 -s 3 -d 2 -p ping -e 64 -c 0 -i 30 -a 0 -x {4.0 0.0 -1 ------- null}
r -t 0.111 -s 5 -d 3 -p ping -e 64 -c 0 -i 31 -a 0 -x {5.0 1.0 -1 ------- null}