+ 0.01 4 3 ping 64 ------- 0 4.0 0.0 -1 0
- 0.01 4 3 ping 64 ------- 0 4.0 0.0 -1 0
+ 0.01 5 3 ping 64 ------- 0 5.0 1.0 -1 1
- 0.01 5 3 ping 64 ------- 0 5.0 1.0 -1 1
+ 0.02 4 3 ping 64 ------- 0 4.0 0.0 -1 2
- 0.02 4 3 ping 64 ------- 0 4.0 0.0 -1 2
+ 0.02 5 3 ping 64 ------- 0 5.0 1.0 -1 3
- 0.02 5 3 ping 64 ------- 0 5.0 1.0 -1 3
r 0.021 4 3 ping 64 ------- 0 4.0 0.0 -1 0
+ 0.021 3 2 ping 64 ------- 0 4.0 0.0 -1 0
- 0.021 3 2 ping 64 ------- 0 4.0 0.0 -1 0
r 0.021 5 3 ping 64 ------- 0 5.0 1.0 -1 1
+ 0.021 3 2 ping 64 ------- 0 5.0 1.0 -1 1
- 0.021512 3 2 ping 64 ------- 0 5.0 1.0 -1 1
+ 0.03 4 3 ping 64 ------- 0 4.0 0.0 -1 4
- 0.03 4 3 ping 64 ------- 0 4.0 0.0 -1 4
+ 0.03 5 3 ping 64 ------- 0 5.0 1.0 -1 5
- 0.03 5 3 ping 64 ------- 0 5.0 1.0 -1 5
r 0.031 4 3 ping 64 ------- 0 4.0 0.0 -1 2
+ 0.031 3 2 ping 64 ------- 0 4.0 0.0 -1 2
- 0.031 3 2 ping 64 ------- 0 4.0 0.0 -1 2
r 0.031 5 3 ping 64 ------- 0 5.0 1.0 -1 3
+ 0.031 3 2 ping 64 ------- 0 5.0 1.0 -1 3
r 0.031512 3 2 ping 64 ------- 0 4.0 0.0 -1 0
+ 0.031512 2 0 ping 64 ------- 0 4.0 0.0 -1 0
- 0.031512 2 0 ping 64 ------- 0 4.0 0.0 -1 0
- 0.031512 3 2 ping 64 ------- 0 5.0 1.0 -1 3
r 0.032024 3 2 ping 64 ------- 0 5.0 1.0 -1 1
+ 0.032024 2 1 ping 64 ------- 0 5.0 1.0 -1 1
- 0.032024 2 1 ping 64 ------- 0 5.0 1.0 -1 1
+ 0.04 4 3 ping 64 ------- 0 4.0 0.0 -1 6
- 0.04 4 3 ping 64 ------- 0 4.0 0.0 -1 6
+ 0.04 5 3 ping 64 ------- 0 5.0 1.0 -1 7
- 0.04 5 3 ping 64 ------- 0 5.0 1.0 -1 7
r 0.041 4 3 ping 64 ------- 0 4.0 0.0 -1 4
+ 0.041 3 2 ping 64 ------- 0 4.0 0.0 -1 4
- 0.041 3 2 ping 64 ------- 0 4.0 0.0 -1 4
r 0.041 5 3 ping 64 ------- 0 5.0 1.0 -1 5
+ 0.041 3 2 ping 64 ------- 0 5.0 1.0 -1 5
- 0.041512 3 2 ping 64 ------- 0 5.0 1.0 -1 5
r 0.041512 3 2 ping 64 ------- 0 4.0 0.0 -1 2
+ 0.041512 2 0 ping 64 ------- 0 4.0 0.0 -1 2
- 0.041512 2 0 ping 64 ------- 0 4.0 0.0 -1 2
r 0.042024 2 0 ping 64 ------- 0 4.0 0.0 -1 0
+ 0.042024 0 2 ping 64 ------- 0 0.0 4.0 -1 8
- 0.042024 0 2 ping 64 ------- 0 0.0 4.0 -1 8
r 0.042024 3 2 ping 64 ------- 0 5.0 1.0 -1 3
+ 0.042024 2 1 ping 64 ------- 0 5.0 1.0 -1 3
- 0.042024 2 1 ping 64 ------- 0 5.0 1.0 -1 3
r 0.043024 2 1 ping 64 ------- 0 5.0 1.0 -1 1
+ 0.043024 1 2 ping 64 ------- 0 1.0 5.0 -1 9
- 0.043024 1 2 ping 64 ------- 0 1.0 5.0 -1 9
+ 0.05 4 3 ping 64 ------- 0 4.0 0.0 -1 10
- 0.05 4 3 ping 64 ------- 0 4.0 0.0 -1 10
+ 0.05 5 3 ping 64 ------- 0 5.0 1.0 -1 11
- 0.05 5 3 ping 64 ------- 0 5.0 1.0 -1 11
r 0.051 4 3 ping 64 ------- 0 4.0 0.0 -1 6
+ 0.051 3 2 ping 64 ------- 0 4.0 0.0 -1 6
- 0.051 3 2 ping 64 ------- 0 4.0 0.0 -1 6
r 0.051 5 3 ping 64 ------- 0 5.0 1.0 -1 7
+ 0.051 3 2 ping 64 ------- 0 5.0 1.0 -1 7
r 0.051512 3 2 ping 64 ------- 0 4.0 0.0 -1 4
+ 0.051512 2 0 ping 64 ------- 0 4.0 0.0 -1 4
- 0.051512 2 0 ping 64 ------- 0 4.0 0.0 -1 4
- 0.051512 3 2 ping 64 ------- 0 5.0 1.0 -1 7
r 0.052024 3 2 ping 64 ------- 0 5.0 1.0 -1 5
+ 0.052024 2 1 ping 64 ------- 0 5.0 1.0 -1 5
- 0.052024 2 1 ping 64 ------- 0 5.0 1.0 -1 5
r 0.052024 2 0 ping 64 ------- 0 4.0 0.0 -1 2
+ 0.052024 0 2 ping 64 ------- 0 0.0 4.0 -1 12
- 0.052024 0 2 ping 64 ------- 0 0.0 4.0 -1 12
r 0.052536 0 2 ping 64 ------- 0 0.0 4.0 -1 8
+ 0.052536 2 3 ping 64 ------- 0 0.0 4.0 -1 8
- 0.052536 2 3 ping 64 ------- 0 0.0 4.0 -1 8
r 0.053024 2 1 ping 64 ------- 0 5.0 1.0 -1 3
+ 0.053024 1 2 ping 64 ------- 0 1.0 5.0 -1 13
- 0.053024 1 2 ping 64 ------- 0 1.0 5.0 -1 13
r 0.054024 1 2 ping 64 ------- 0 1.0 5.0 -1 9
+ 0.054024 2 3 ping 64 ------- 0 1.0 5.0 -1 9
- 0.054024 2 3 ping 64 ------- 0 1.0 5.0 -1 9
+ 0.06 4 3 ping 64 ------- 0 4.0 0.0 -1 14
- 0.06 4 3 ping 64 ------- 0 4.0 0.0 -1 14
+ 0.06 5 3 ping 64 ------- 0 5.0 1.0 -1 15
- 0.06 5 3 ping 64 ------- 0 5.0 1.0 -1 15
r 0.061 4 3 ping 64 ------- 0 4.0 0.0 -1 10
+ 0.061 3 2 ping 64 ------- 0 4.0 0.0 -1 10
- 0.061 3 2 ping 64 ------- 0 4.0 0.0 -1 10
r 0.061 5 3 ping 64 ------- 0 5.0 1.0 -1 11
+ 0.061 3 2 ping 64 ------- 0 5.0 1.0 -1 11
- 0.061512 3 2 ping 64 ------- 0 5.0 1.0 -1 11
r 0.061512 3 2 ping 64 ------- 0 4.0 0.0 -1 6
+ 0.061512 2 0 ping 64 ------- 0 4.0 0.0 -1 6
- 0.061512 2 0 ping 64 ------- 0 4.0 0.0 -1 6
r 0.062024 2 0 ping 64 ------- 0 4.0 0.0 -1 4
+ 0.062024 0 2 ping 64 ------- 0 0.0 4.0 -1 16
- 0.062024 0 2 ping 64 ------- 0 0.0 4.0 -1 16
r 0.062024 3 2 ping 64 ------- 0 5.0 1.0 -1 7
+ 0.062024 2 1 ping 64 ------- 0 5.0 1.0 -1 7
- 0.062024 2 1 ping 64 ------- 0 5.0 1.0 -1 7
r 0.062536 0 2 ping 64 ------- 0 0.0 4.0 -1 12
+ 0.062536 2 3 ping 64 ------- 0 0.0 4.0 -1 12
- 0.062536 2 3 ping 64 ------- 0 0.0 4.0 -1 12
r 0.063024 2 1 ping 64 ------- 0 5.0 1.0 -1 5
+ 0.063024 1 2 ping 64 ------- 0 1.0 5.0 -1 17
- 0.063024 1 2 ping 64 ------- 0 1.0 5.0 -1 17
r 0.063048 2 3 ping 64 ------- 0 0.0 4.0 -1 8
+ 0.063048 3 4 ping 64 ------- 0 0.0 4.0 -1 8
- 0.063048 3 4 ping 64 ------- 0 0.0 4.0 -1 8
r 0.064024 1 2 ping 64 ------- 0 1.0 5.0 -1 13
+ 0.064024 2 3 ping 64 ------- 0 1.0 5.0 -1 13
- 0.064024 2 3 ping 64 ------- 0 1.0 5.0 -1 13
r 0.064536 2 3 ping 64 ------- 0 1.0 5.0 -1 9
+ 0.064536 3 5 ping 64 ------- 0 1.0 5.0 -1 9
- 0.064536 3 5 ping 64 ------- 0 1.0 5.0 -1 9
+ 0.07 4 3 ping 64 ------- 0 4.0 0.0 -1 18
- 0.07 4 3 ping 64 ------- 0 4.0 0.0 -1 18
+ 0.07 5 3 ping 64 ------- 0 5.0 1.0 -1 19
- 0.07 5 3 ping 64 ------- 0 5.0 1.0 -1 19
r 0.071 4 3 ping 64 ------- 0 4.0 0.0 -1 14
+ 0.071 3 2 ping 64 ------- 0 4.0 0.0 -1 14
- 0.071 3 2 ping 64 ------- 0 4.0 0.0 -1 14
r 0.071 5 3 ping 64 ------- 0 5.0 1.0 -1 15
+ 0.071 3 2 ping 64 ------- 0 5.0 1.0 -1 15
r 0.071512 3 2 ping 64 ------- 0 4.0 0.0 -1 10
+ 0.071512 2 0 ping 64 ------- 0 4.0 0.0 -1 10
- 0.071512 2 0 ping 64 ------- 0 4.0 0.0 -1 10
- 0.071512 3 2 ping 64 ------- 0 5.0 1.0 -1 15
r 0.072024 3 2 ping 64 ------- 0 5.0 1.0 -1 11
+ 0.072024 2 1 ping 64 ------- 0 5.0 1.0 -1 11
- 0.072024 2 1 ping 64 ------- 0 5.0 1.0 -1 11
r 0.072024 2 0 ping 64 ------- 0 4.0 0.0 -1 6
+ 0.072024 0 2 ping 64 ------- 0 0.0 4.0 -1 20
- 0.072024 0 2 ping 64 ------- 0 0.0 4.0 -1 20
r 0.072536 0 2 ping 64 ------- 0 0.0 4.0 -1 16
+ 0.072536 2 3 ping 64 ------- 0 0.0 4.0 -1 16
- 0.072536 2 3 ping 64 ------- 0 0.0 4.0 -1 16
r 0.073024 2 1 ping 64 ------- 0 5.0 1.0 -1 7
+ 0.073024 1 2 ping 64 ------- 0 1.0 5.0 -1 21
- 0.073024 1 2 ping 64 ------- 0 1.0 5.0 -1 21
r 0.073048 2 3 ping 64 ------- 0 0.0 4.0 -1 12
+ 0.073048 3 4 ping 64 ------- 0 0.0 4.0 -1 12
- 0.073048 3 4 ping 64 ------- 0 0.0 4.0 -1 12
r 0.074024 1 2 ping 64 ------- 0 1.0 5.0 -1 17
+ 0.074024 2 3 ping 64 ------- 0 1.0 5.0 -1 17
- 0.074024 2 3 ping 64 ------- 0 1.0 5.0 -1 17
r 0.074048 3 4 ping 64 ------- 0 0.0 4.0 -1 8
r 0.074536 2 3 ping 64 ------- 0 1.0 5.0 -1 13
+ 0.074536 3 5 ping 64 ------- 0 1.0 5.0 -1 13
- 0.074536 3 5 ping 64 ------- 0 1.0 5.0 -1 13
r 0.075536 3 5 ping 64 ------- 0 1.0 5.0 -1 9
+ 0.08 4 3 ping 64 ------- 0 4.0 0.0 -1 22
- 0.08 4 3 ping 64 ------- 0 4.0 0.0 -1 22
+ 0.08 5 3 ping 64 ------- 0 5.0 1.0 -1 23
- 0.08 5 3 ping 64 ------- 0 5.0 1.0 -1 23
r 0.081 4 3 ping 64 ------- 0 4.0 0.0 -1 18
+ 0.081 3 2 ping 64 ------- 0 4.0 0.0 -1 18
- 0.081 3 2 ping 64 ------- 0 4.0 0.0 -1 18
r 0.081 5 3 ping 64 ------- 0 5.0 1.0 -1 19
+ 0.081 3 2 ping 64 ------- 0 5.0 1.0 -1 19
r 0.081512 3 2 ping 64 ------- 0 4.0 0.0 -1 14
+ 0.081512 2 0 ping 64 ------- 0 4.0 0.0 -1 14
- 0.081512 2 0 ping 64 ------- 0 4.0 0.0 -1 14
- 0.081512 3 2 ping 64 ------- 0 5.0 1.0 -1 19
r 0.082024 2 0 ping 64 ------- 0 4.0 0.0 -1 10
+ 0.082024 0 2 ping 64 ------- 0 0.0 4.0 -1 24
- 0.082024 0 2 ping 64 ------- 0 0.0 4.0 -1 24
r 0.082024 3 2 ping 64 ------- 0 5.0 1.0 -1 15
+ 0.082024 2 1 ping 64 ------- 0 5.0 1.0 -1 15
- 0.082024 2 1 ping 64 ------- 0 5.0 1.0 -1 15
r 0.082536 0 2 ping 64 ------- 0 0.0 4.0 -1 20
+ 0.082536 2 3 ping 64 ------- 0 0.0 4.0 -1 20
- 0.082536 2 3 ping 64 ------- 0 0.0 4.0 -1 20
r 0.083024 2 1 ping 64 ------- 0 5.0 1.0 -1 11
+ 0.083024 1 2 ping 64 ------- 0 1.0 5.0 -1 25
- 0.083024 1 2 ping 64 ------- 0 1.0 5.0 -1 25
r 0.083048 2 3 ping 64 ------- 0 0.0 4.0 -1 16
+ 0.083048 3 4 ping 64 ------- 0 0.0 4.0 -1 16
- 0.083048 3 4 ping 64 ------- 0 0.0 4.0 -1 16
r 0.084024 1 2 ping 64 ------- 0 1.0 5.0 -1 21
+ 0.084024 2 3 ping 64 ------- 0 1.0 5.0 -1 21
- 0.084024 2 3 ping 64 ------- 0 1.0 5.0 -1 21
r 0.084048 3 4 ping 64 ------- 0 0.0 4.0 -1 12
r 0.084536 2 3 ping 64 ------- 0 1.0 5.0 -1 17
+ 0.084536 3 5 ping 64 ------- 0 1.0 5.0 -1 17
- 0.084536 3 5 ping 64 ------- 0 1.0 5.0 -1 17
r 0.085536 3 5 ping 64 ------- 0 1.0 5.0 -1 13
+ 0.09 4 3 ping 64 ------- 0 4.0 0.0 -1 26
- 0.09 4 3 ping 64 ------- 0 4.0 0.0 -1 26
+ 0.09 5 3 ping 64 ------- 0 5.0 1.0 -1 27
- 0.09 5 3 ping 64 ------- 0 5.0 1.0 -1 27
r 0.091 4 3 ping 64 ------- 0 4.0 0.0 -1 22
+ 0.091 3 2 ping 64 ------- 0 4.0 0.0 -1 22
- 0.091 3 2 ping 64 ------- 0 4.0 0.0 -1 22
r 0.091 5 3 ping 64 ------- 0 5.0 1.0 -1 23
+ 0.091 3 2 ping 64 ------- 0 5.0 1.0 -1 23
- 0.091512 3 2 ping 64 ------- 0 5.0 1.0 -1 23
r 0.091512 3 2 ping 64 ------- 0 4.0 0.0 -1 18
+ 0.091512 2 0 ping 64 ------- 0 4.0 0.0 -1 18
- 0.091512 2 0 ping 64 ------- 0 4.0 0.0 -1 18
r 0.092024 2 0 ping 64 ------- 0 4.0 0.0 -1 14
+ 0.092024 0 2 ping 64 ------- 0 0.0 4.0 -1 28
- 0.092024 0 2 ping 64 ------- 0 0.0 4.0 -1 28
r 0.092024 3 2 ping 64 ------- 0 5.0 1.0 -1 19
+ 0.092024 2 1 ping 64 ------- 0 5.0 1.0 -1 19
- 0.092024 2 1 ping 64 ------- 0 5.0 1.0 -1 19
r 0.092536 0 2 ping 64 ------- 0 0.0 4.0 -1 24
+ 0.092536 2 3 ping 64 ------- 0 0.0 4.0 -1 24
- 0.092536 2 3 ping 64 ------- 0 0.0 4.0 -1 24
r 0.093024 2 1 ping 64 ------- 0 5.0 1.0 -1 15
+ 0.093024 1 2 ping 64 ------- 0 1.0 5.0 -1 29
- 0.093024 1 2 ping 64 ------- 0 1.0 5.0 -1 29
r 0.093048 2 3 ping 64 ------- 0 0.0 4.0 -1 20
+ 0.093048 3 4 ping 64 ------- 0 0.0 4.0 -1 20
- 0.093048 3 4 ping 64 ------- 0 0.0 4.0 -1 20
r 0.094024 1 2 ping 64 ------- 0 1.0 5.0 -1 25
+ 0.094024 2 3 ping 64 ------- 0 1.0 5.0 -1 25
- 0.094024 2 3 ping 64 ------- 0 1.0 5.0 -1 25
r 0.094048 3 4 ping 64 ------- 0 0.0 4.0 -1 16
r 0.094536 2 3 ping 64 ------- 0 1.0 5.0 -1 21
+ 0.094536 3 5 ping 64 ------- 0 1.0 5.0 -1 21
- 0.094536 3 5 ping 64 ------- 0 1.0 5.0 -1 21
r 0.095536 3 5 ping 64 ------- 0 1.0 5.0 -1 17
+ 0.1 4 3 ping 64 ------- 0 4.0 0.0 -1 30
- 0.1 4 3 ping 64 ------- 0 4.0 0.0 -1 30
+ 0.1 5 3 ping 64 ------- 0 5.0 1.0 -1 31
- 0.1 5 3 ping 64 ------- 0 5.0 1.0 -1 31
r 0.101 4 3 ping 64 ------- 0 4.0 0.0 -1 26
+ 0.101 3 2 ping 64 ------- 0 4.0 0.0 -1 26
- 0.101 3 2 ping 64 ------- 0 4.0 0.0 -1 26
r 0.101 5 3 ping 64 ------- 0 5.0 1.0 -1 27
+ 0.101 3 2 ping 64 ------- 0 5.0 1.0 -1 27
r 0.101512 3 2 ping 64 ------- 0 4.0 0.0 -1 22
+ 0.101512 2 0 ping 64 ------- 0 4.0 0.0 -1 22
- 0.101512 2 0 ping 64 ------- 0 4.0 0.0 -1 22
- 0.101512 3 2 ping 64 ------- 0 5.0 1.0 -1 27
r 0.102024 3 2 ping 64 ------- 0 5.0 1.0 -1 23
+ 0.102024 2 1 ping 64 ------- 0 5.0 1.0 -1 23
- 0.102024 2 1 ping 64 ------- 0 5.0 1.0 -1 23
r 0.102024 2 0 ping 64 ------- 0 4.0 0.0 -1 18
+ 0.102024 0 2 ping 64 ------- 0 0.0 4.0 -1 32
- 0.102024 0 2 ping 64 ------- 0 0.0 4.0 -1 32
r 0.102536 0 2 ping 64 ------- 0 0.0 4.0 -1 28
+ 0.102536 2 3 ping 64 ------- 0 0.0 4.0 -1 28
- 0.102536 2 3 ping 64 ------- 0 0.0 4.0 -1 28
r 0.103024 2 1 ping 64 ------- 0 5.0 1.0 -1 19
+ 0.103024 1 2 ping 64 ------- 0 1.0 5.0 -1 33
- 0.103024 1 2 ping 64 ------- 0 1.0 5.0 -1 33
r 0.103048 2 3 ping 64 ------- 0 0.0 4.0 -1 24
+ 0.103048 3 4 ping 64 ------- 0 0.0 4.0 -1 24
- 0.103048 3 4 ping 64 ------- 0 0.0 4.0 -1 24
r 0.104024 1 2 ping 64 ------- 0 1.0 5.0 -1 29
+ 0.104024 2 3 ping 64 ------- 0 1.0 5.0 -1 29
- 0.104024 2 3 ping 64 ------- 0 1.0 5.0 -1 29
r 0.104048 3 4 ping 64 ------- 0 0.0 4.0 -1 20
r 0.104536 2 3 ping 64 ------- 0 1.0 5.0 -1 25
+ 0.104536 3 5 ping 64 ------- 0 1.0 5.0 -1 25
- 0.104536 3 5 ping 64 ------- 0 1.0 5.0 -1 25
r 0.105536 3 5 ping 64 ------- 0 1.0 5.0 -1 21
+ 0.11 4 3 ping 64 ------- 0 4.0 0.0 -1 34
- 0.11 4 3 ping 64 ------- 0 4.0 0.0 -1 34
+ 0.11 5 3 ping 64 ------- 0 5.0 1.0 -1 35
- 0.11 5 3 ping 64 ------- 0 5.0 1.0 -1 35
r 0.111 4 3 ping 64 ------- 0 4.0 0.0 -1 30
+ 0.111 3 2 ping 64 ------- 0 4.0 0.0 -1 30
- 0.111 3 2 ping 64 ------- 0 4.0 0.0 -1 30
r 0.111 5 3 ping 64 ------- 0 5.0 1.0 -1 31
+ 0.111 3 2 ping 64 ------- 0 5.0 1.0 -1 31
r 0.111512 3 2 ping 64 ------- 0 4.0 0.0 -1 26
+ 0.111512 2 0 ping 64 ------- 0 4.0 0.0 -1 26
- 0.111512 2 0 ping 64 ------- 0 4.0 0.0 -1 26
- 0.111512 3 2 ping 64 ------- 0 5.0 1.0 -1 31
r 0.112024 2 0 ping 64 ------- 0 4.0 0.0 -1 22
+ 0.112024 0 2 ping 64 ------- 0 0.0 4.0 -1 36
- 0.112024 0 2 ping 64 ------- 0 0.0 4.0 -1 36
r 0.112024 3 2 ping 64 ------- 0 5.0 1.0 -1 27
+ 0.112024 2 1 ping 64 ------- 0 5.0 1.0 -1 27
- 0.112024 2 1 ping 64 ------- 0 5.0 1.0 -1 27
r 0.112536 0 2 ping 64 ------- 0 0.0 4.0 -1 32
+ 0.112536 2 3 ping 64 ------- 0 0.0 4.0 -1 32
- 0.112536 2 3 ping 64 ------- 0 0.0 4.0 -1 32
r 0.113024 2 1 ping 64 ------- 0 5.0 1.0 -1 23
+ 0.113024 1 2 ping 64 ------- 0 1.0 5.0 -1 37
- 0.113024 1 2 ping 64 ------- 0 1.0 5.0 -1 37
r 0.113048 2 3 ping 64 ------- 0 0.0 4.0 -1 28
+ 0.113048 3 4 ping 64 ------- 0 0.0 4.0 -1 28
- 0.113048 3 4 ping 64 ------- 0 0.0 4.0 -1 28
r 0.114024 1 2 ping 64 ------- 0 1.0 5.0 -1 33
+ 0.114024 2 3 ping 64 ------- 0 1.0 5.0 -1 33
- 0.114024 2 3 ping 64 ------- 0 1.0 5.0 -1 33
r 0.114048 3 4 ping 64 ------- 0 0.0 4.0 -1 24
r 0.114536 2 3 ping 64 ------- 0 1.0 5.0 -1 29
+ 0.114536 3 5 ping 64 ------- 0 1.0 5.0 -1 29
- 0.114536 3 5 ping 64 ------- 0 1.0 5.0 -1 29
r 0.115536 3 5 ping 64 ------- 0 1.0 5.0 -1 25
+ 0.12 4 3 ping 64 ------- 0 4.0 0.0 -1 38
- 0.12 4 3 ping 64 ------- 0 4.0 0.0 -1 38
+ 0.12 5 3 ping 64 ------- 0 5.0 1.0 -1 39
- 0.12 5 3 ping 64 ------- 0 5.0 1.0 -1 39
r 0.121 4 3 ping 64 ------- 0 4.0 0.0 -1 34
+ 0.121 3 2 ping 64 ------- 0 4.0 0.0 -1 34
- 0.121 3 2 ping 64 ------- 0 4.0 0.0 -1 34
r 0.121 5 3 ping 64 ------- 0 5.0 1.0 -1 35
+ 0.121 3 2 ping 64 ------- 0 5.0 1.0 -1 35
- 0.121512 3 2 ping 64 ------- 0 5.0 1.0 -1 35
r 0.121512 3 2 ping 64 ------- 0 4.0 0.0 -1 30
+ 0.121512 2 0 ping 64 ------- 0 4.0 0.0 -1 30
- 0.121512 2 0 ping 64 ------- 0 4.0 0.0 -1 30
r 0.122024 2 0 ping 64 ------- 0 4.0 0.0 -1 26
+ 0.122024 0 2 ping 64 ------- 0 0.0 4.0 -1 40
- 0.122024 0 2 ping 64 ------- 0 0.0 4.0 -1 40
r 0.122024 3 2 ping 64 ------- 0 5.0 1.0 -1 31
+ 0.122024 2 1 ping 64 ------- 0 5.0 1.0 -1 31
- 0.122024 2 1 ping 64 ------- 0 5.0 1.0 -1 31
r 0.122536 0 2 ping 64 ------- 0 0.0 4.0 -1 36
+ 0.122536 2 3 ping 64 ------- 0 0.0 4.0 -1 36
- 0.122536 2 3 ping 64 ------- 0 0.0 4.0 -1 36
r 0.123024 2 1 ping 64 ------- 0 5.0 1.0 -1 27
+ 0.123024 1 2 ping 64 ------- 0 1.0 5.0 -1 41
- 0.123024 1 2 ping 64 ------- 0 1.0 5.0 -1 41
r 0.123048 2 3 ping 64 ------- 0 0.0 4.0 -1 32
+ 0.123048 3 4 ping 64 ------- 0 0.0 4.0 -1 32
- 0.123048 3 4 ping 64 ------- 0 0.0 4.0 -1 32
r 0.124024 1 2 ping 64 ------- 0 1.0 5.0 -1 37
+ 0.124024 2 3 ping 64 ------- 0 1.0 5.0 -1 37
- 0.124024 2 3 ping 64 ------- 0 1.0 5.0 -1 37
r 0.124048 3 4 ping 64 ------- 0 0.0 4.0 -1 28
r 0.124536 2 3 ping 64 ------- 0 1.0 5.0 -1 33
+ 0.124536 3 5 ping 64 ------- 0 1.0 5.0 -1 33
- 0.124536 3 5 ping 64 ------- 0 1.0 5.0 -1 33
r 0.125536 3 5 ping 64 ------- 0 1.0 5.0 -1 29
+ 0.13 4 3 ping 64 ------- 0 4.0 0.0 -1 42
- 0.13 4 3 ping 64 ------- 0 4.0 0.0 -1 42
+ 0.13 5 3 ping 64 ------- 0 5.0 1.0 -1 43
- 0.13 5 3 ping 64 ------- 0 5.0 1.0 -1 43
r 0.131 4 3 ping 64 ------- 0 4.0 0.0 -1 38
+ 0.131 3 2 ping 64 ------- 0 4.0 0.0 -1 38
- 0.131 3 2 ping 64 ------- 0 4.0 0.0 -1 38
r 0.131 5 3 ping 64 ------- 0 5.0 1.0 -1 39
+ 0.131 3 2 ping 64 ------- 0 5.0 1.0 -1 39
r 0.131512 3 2 ping 64 ------- 0 4.0 0.0 -1 34
+ 0.131512 2 0 ping 64 ------- 0 4.0 0.0 -1 34
- 0.131512 2 0 ping 64 ------- 0 4.0 0.0 -1 34
- 0.131512 3 2 ping 64 ------- 0 5.0 1.0 -1 39
r 0.132024 3 2 ping 64 ------- 0 5.0 1.0 -1 35
+ 0.132024 2 1 ping 64 ------- 0 5.0 1.0 -1 35
- 0.132024 2 1 ping 64 ------- 0 5.0 1.0 -1 35
r 0.132024 2 0 ping 64 ------- 0 4.0 0.0 -1 30
+ 0.132024 0 2 ping 64 ------- 0 0.0 4.0 -1 44
- 0.132024 0 2 ping 64 ------- 0 0.0 4.0 -1 44
r 0.132536 0 2 ping 64 ------- 0 0.0 4.0 -1 40
+ 0.132536 2 3 ping 64 ------- 0 0.0 4.0 -1 40
- 0.132536 2 3 ping 64 ------- 0 0.0 4.0 -1 40
r 0.133024 2 1 ping 64 ------- 0 5.0 1.0 -1 31
+ 0.133024 1 2 ping 64 ------- 0 1.0 5.0 -1 45
- 0.133024 1 2 ping 64 ------- 0 1.0 5.0 -1 45
r 0.133048 2 3 ping 64 ------- 0 0.0 4.0 -1 36
+ 0.133048 3 4 ping 64 ------- 0 0.0 4.0 -1 36
- 0.133048 3 4 ping 64 ------- 0 0.0 4.0 -1 36
r 0.134024 1 2 ping 64 ------- 0 1.0 5.0 -1 41
+ 0.134024 2 3 ping 64 ------- 0 1.0 5.0 -1 41
- 0.134024 2 3 ping 64 ------- 0 1.0 5.0 -1 41
r 0.134048 3 4 ping 64 ------- 0 0.0 4.0 -1 32
r 0.134536 2 3 ping 64 ------- 0 1.0 5.0 -1 37
+ 0.134536 3 5 ping 64 ------- 0 1.0 5.0 -1 37
- 0.134536 3 5 ping 64 ------- 0 1.0 5.0 -1 37
r 0.135536 3 5 ping 64 ------- 0 1.0 5.0 -1 33
+ 0.14 4 3 ping 64 ------- 0 4.0 0.0 -1 46
- 0.14 4 3 ping 64 ------- 0 4.0 0.0 -1 46
+ 0.14 5 3 ping 64 ------- 0 5.0 1.0 -1 47
- 0.14 5 3 ping 64 ------- 0 5.0 1.0 -1 47
r 0.141 4 3 ping 64 ------- 0 4.0 0.0 -1 42
+ 0.141 3 2 ping 64 ------- 0 4.0 0.0 -1 42
- 0.141 3 2 ping 64 ------- 0 4.0 0.0 -1 42
r 0.141 5 3 ping 64 ------- 0 5.0 1.0 -1 43
+ 0.141 3 2 ping 64 ------- 0 5.0 1.0 -1 43
r 0.141512 3 2 ping 64 ------- 0 4.0 0.0 -1 38
+ 0.141512 2 0 ping 64 ------- 0 4.0 0.0 -1 38
- 0.141512 2 0 ping 64 ------- 0 4.0 0.0 -1 38
- 0.141512 3 2 ping 64 ------- 0 5.0 1.0 -1 43
r 0.142024 2 0 ping 64 ------- 0 4.0 0.0 -1 34
+ 0.142024 0 2 ping 64 ------- 0 0.0 4.0 -1 48
- 0.142024 0 2 ping 64 ------- 0 0.0 4.0 -1 48
r 0.142024 3 2 ping 64 ------- 0 5.0 1.0 -1 39
+ 0.142024 2 1 ping 64 ------- 0 5.0 1.0 -1 39
- 0.142024 2 1 ping 64 ------- 0 5.0 1.0 -1 39
r 0.142536 0 2 ping 64 ------- 0 0.0 4.0 -1 44
+ 0.142536 2 3 ping 64 ------- 0 0.0 4.0 -1 44
- 0.142536 2 3 ping 64 ------- 0 0.0 4.0 -1 44
r 0.143024 2 1 ping 64 ------- 0 5.0 1.0 -1 35
+ 0.143024 1 2 ping 64 ------- 0 1.0 5.0 -1 49
- 0.143024 1 2 ping 64 ------- 0 1.0 5.0 -1 49
r 0.143048 2 3 ping 64 ------- 0 0.0 4.0 -1 40
+ 0.143048 3 4 ping 64 ------- 0 0.0 4.0 -1 40
- 0.143048 3 4 ping 64 ------- 0 0.0 4.0 -1 40
r 0.144024 1 2 ping 64 ------- 0 1.0 5.0 -1 45
+ 0.144024 2 3 ping 64 ------- 0 1.0 5.0 -1 45
- 0.144024 2 3 ping 64 ------- 0 1.0 5.0 -1 45
r 0.144048 3 4 ping 64 ------- 0 0.0 4.0 -1 36
r 0.144536 2 3 ping 64 ------- 0 1.0 5.0 -1 41
+ 0.144536 3 5 ping 64 ------- 0 1.0 5.0 -1 41
- 0.144536 3 5 ping 64 ------- 0 1.0 5.0 -1 41
r 0.145536 3 5 ping 64 ------- 0 1.0 5.0 -1 37
+ 0.15 4 3 ping 64 ------- 0 4.0 0.0 -1 50
- 0.15 4 3 ping 64 ------- 0 4.0 0.0 -1 50
+ 0.15 5 3 ping 64 ------- 0 5.0 1.0 -1 51
- 0.15 5 3 ping 64 ------- 0 5.0 1.0 -1 51
r 0.151 4 3 ping 64 ------- 0 4.0 0.0 -1 46
+ 0.151 3 2 ping 64 ------- 0 4.0 0.0 -1 46
- 0.151 3 2 ping 64 ------- 0 4.0 0.0 -1 46
r 0.151 5 3 ping 64 ------- 0 5.0 1.0 -1 47
+ 0.151 3 2 ping 64 ------- 0 5.0 1.0 -1 47
r 0.151512 3 2 ping 64 ------- 0 4.0 0.0 -1 42
+ 0.151512 2 0 ping 64 ------- 0 4.0 0.0 -1 42
- 0.151512 2 0 ping 64 ------- 0 4.0 0.0 -1 42
- 0.151512 3 2 ping 64 ------- 0 5.0 1.0 -1 47
r 0.152024 2 0 ping 64 ------- 0 4.0 0.0 -1 38
+ 0.152024 0 2 ping 64 ------- 0 0.0 4.0 -1 52
- 0.152024 0 2 ping 64 ------- 0 0.0 4.0 -1 52
r 0.152024 3 2 ping 64 ------- 0 5.0 1.0 -1 43
+ 0.152024 2 1 ping 64 ------- 0 5.0 1.0 -1 43
- 0.152024 2 1 ping 64 ------- 0 5.0 1.0 -1 43
r 0.152536 0 2 ping 64 ------- 0 0.0 4.0 -1 48
+ 0.152536 2 3 ping 64 ------- 0 0.0 4.0 -1 48
- 0.152536 2 3 ping 64 ------- 0 0.0 4.0 -1 48
r 0.153024 2 1 ping 64 ------- 0 5.0 1.0 -1 39
+ 0.153024 1 2 ping 64 ------- 0 1.0 5.0 -1 53
- 0.153024 1 2 ping 64 ------- 0 1.0 5.0 -1 53
r 0.153048 2 3 ping 64 ------- 0 0.0 4.0 -1 44
+ 0.153048 3 4 ping 64 ------- 0 0.0 4.0 -1 44
- 0.153048 3 4 ping 64 ------- 0 0.0 4.0 -1 44
r 0.154024 1 2 ping 64 ------- 0 1.0 5.0 -1 49
+ 0.154024 2 3 ping 64 ------- 0 1.0 5.0 -1 49
- 0.154024 2 3 ping 64 ------- 0 1.0 5.0 -1 49
r 0.154048 3 4 ping 64 ------- 0 0.0 4.0 -1 40
r 0.154536 2 3 ping 64 ------- 0 1.0 5.0 -1 45
+ 0.154536 3 5 ping 64 ------- 0 1.0 5.0 -1 45
- 0.154536 3 5 ping 64 ------- 0 1.0 5.0 -1 45
r 0.155536 3 5 ping 64 ------- 0 1.0 5.0 -1 41
+ 0.16 4 3 ping 64 ------- 0 4.0 0.0 -1 54
- 0.16 4 3 ping 64 ------- 0 4.0 0.0 -1 54
+ 0.16 5 3 ping 64 ------- 0 5.0 1.0 -1 55
- 0.16 5 3 ping 64 ------- 0 5.0 1.0 -1 55
r 0.161 4 3 ping 64 ------- 0 4.0 0.0 -1 50
+ 0.161 3 2 ping 64 ------- 0 4.0 0.0 -1 50
- 0.161 3 2 ping 64 ------- 0 4.0 0.0 -1 50
r 0.161 5 3 ping 64 ------- 0 5.0 1.0 -1 51
+ 0.161 3 2 ping 64 ------- 0 5.0 1.0 -1 51
r 0.161512 3 2 ping 64 ------- 0 4.0 0.0 -1 46
+ 0.161512 2 0 ping 64 ------- 0 4.0 0.0 -1 46
- 0.161512 2 0 ping 64 ------- 0 4.0 0.0 -1 46
- 0.161512 3 2 ping 64 ------- 0 5.0 1.0 -1 51
r 0.162024 2 0 ping 64 ------- 0 4.0 0.0 -1 42
+ 0.162024 0 2 ping 64 ------- 0 0.0 4.0 -1 56
- 0.162024 0 2 ping 64 ------- 0 0.0 4.0 -1 56
r 0.162024 3 2 ping 64 ------- 0 5.0 1.0 -1 47
+ 0.162024 2 1 ping 64 ------- 0 5.0 1.0 -1 47
- 0.162024 2 1 ping 64 ------- 0 5.0 1.0 -1 47
r 0.162536 0 2 ping 64 ------- 0 0.0 4.0 -1 52
+ 0.162536 2 3 ping 64 ------- 0 0.0 4.0 -1 52
- 0.162536 2 3 ping 64 ------- 0 0.0 4.0 -1 52
r 0.163024 2 1 ping 64 ------- 0 5.0 1.0 -1 43
+ 0.163024 1 2 ping 64 ------- 0 1.0 5.0 -1 57
- 0.163024 1 2 ping 64 ------- 0 1.0 5.0 -1 57
r 0.163048 2 3 ping 64 ------- 0 0.0 4.0 -1 48
+ 0.163048 3 4 ping 64 ------- 0 0.0 4.0 -1 48
- 0.163048 3 4 ping 64 ------- 0 0.0 4.0 -1 48
r 0.164024 1 2 ping 64 ------- 0 1.0 5.0 -1 53
+ 0.164024 2 3 ping 64 ------- 0 1.0 5.0 -1 53
- 0.164024 2 3 ping 64 ------- 0 1.0 5.0 -1 53
r 0.164048 3 4 ping 64 ------- 0 0.0 4.0 -1 44
r 0.164536 2 3 ping 64 ------- 0 1.0 5.0 -1 49
+ 0.164536 3 5 ping 64 ------- 0 1.0 5.0 -1 49
- 0.164536 3 5 ping 64 ------- 0 1.0 5.0 -1 49
r 0.165536 3 5 ping 64 ------- 0 1.0 5.0 -1 45
+ 0.17 4 3 ping 64 ------- 0 4.0 0.0 -1 58
- 0.17 4 3 ping 64 ------- 0 4.0 0.0 -1 58
+ 0.17 5 3 ping 64 ------- 0 5.0 1.0 -1 59
- 0.17 5 3 ping 64 ------- 0 5.0 1.0 -1 59
r 0.171 4 3 ping 64 ------- 0 4.0 0.0 -1 54
+ 0.171 3 2 ping 64 ------- 0 4.0 0.0 -1 54
- 0.171 3 2 ping 64 ------- 0 4.0 0.0 -1 54
r 0.171 5 3 ping 64 ------- 0 5.0 1.0 -1 55
+ 0.171 3 2 ping 64 ------- 0 5.0 1.0 -1 55
r 0.171512 3 2 ping 64 ------- 0 4.0 0.0 -1 50
+ 0.171512 2 0 ping 64 ------- 0 4.0 0.0 -1 50
- 0.171512 2 0 ping 64 ------- 0 4.0 0.0 -1 50
- 0.171512 3 2 ping 64 ------- 0 5.0 1.0 -1 55
r 0.172024 2 0 ping 64 ------- 0 4.0 0.0 -1 46
+ 0.172024 0 2 ping 64 ------- 0 0.0 4.0 -1 60
- 0.172024 0 2 ping 64 ------- 0 0.0 4.0 -1 60
r 0.172024 3 2 ping 64 ------- 0 5.0 1.0 -1 51
+ 0.172024 2 1 ping 64 ------- 0 5.0 1.0 -1 51
- 0.172024 2 1 ping 64 ------- 0 5.0 1.0 -1 51
r 0.172536 0 2 ping 64 ------- 0 0.0 4.0 -1 56
+ 0.172536 2 3 ping 64 ------- 0 0.0 4.0 -1 56
- 0.172536 2 3 ping 64 ------- 0 0.0 4.0 -1 56
r 0.173024 2 1 ping 64 ------- 0 5.0 1.0 -1 47
+ 0.173024 1 2 ping 64 ------- 0 1.0 5.0 -1 61
- 0.173024 1 2 ping 64 ------- 0 1.0 5.0 -1 61
r 0.173048 2 3 ping 64 ------- 0 0.0 4.0 -1 52
+ 0.173048 3 4 ping 64 ------- 0 0.0 4.0 -1 52
- 0.173048 3 4 ping 64 ------- 0 0.0 4.0 -1 52
r 0.174024 1 2 ping 64 ------- 0 1.0 5.0 -1 57
+ 0.174024 2 3 ping 64 ------- 0 1.0 5.0 -1 57
- 0.174024 2 3 ping 64 ------- 0 1.0 5.0 -1 57
r 0.174048 3 4 ping 64 ------- 0 0.0 4.0 -1 48
r 0.174536 2 3 ping 64 ------- 0 1.0 5.0 -1 53
+ 0.174536 3 5 ping 64 ------- 0 1.0 5.0 -1 53
- 0.174536 3 5 ping 64 ------- 0 1.0 5.0 -1 53
r 0.175536 3 5 ping 64 ------- 0 1.0 5.0 -1 49
+ 0.18 4 3 ping 64 ------- 0 4.0 0.0 -1 62
- 0.18 4 3 ping 64 ------- 0 4.0 0.0 -1 62
+ 0.18 5 3 ping 64 ------- 0 5.0 1.0 -1 63
- 0.18 5 3 ping 64 ------- 0 5.0 1.0 -1 63
r 0.181 4 3 ping 64 ------- 0 4.0 0.0 -1 58
+ 0.181 3 2 ping 64 ------- 0 4.0 0.0 -1 58
- 0.181 3 2 ping 64 ------- 0 4.0 0.0 -1 58
r 0.181 5 3 ping 64 ------- 0 5.0 1.0 -1 59
+ 0.181 3 2 ping 64 ------- 0 5.0 1.0 -1 59
r 0.181512 3 2 ping 64 ------- 0 4.0 0.0 -1 54
+ 0.181512 2 0 ping 64 ------- 0 4.0 0.0 -1 54
- 0.181512 2 0 ping 64 ------- 0 4.0 0.0 -1 54
- 0.181512 3 2 ping 64 ------- 0 5.0 1.0 -1 59
r 0.182024 2 0 ping 64 ------- 0 4.0 0.0 -1 50
+ 0.182024 0 2 ping 64 ------- 0 0.0 4.0 -1 64
- 0.182024 0 2 ping 64 ------- 0 0.0 4.0 -1 64
r 0.182024 3 2 ping 64 ------- 0 5.0 1.0 -1 55
+ 0.182024 2 1 ping 64 ------- 0 5.0 1.0 -1 55
- 0.182024 2 1 ping 64 ------- 0 5.0 1.0 -1 55
r 0.182536 0 2 ping 64 ------- 0 0.0 4.0 -1 60
+ 0.182536 2 3 ping 64 ------- 0 0.0 4.0 -1 60
- 0.182536 2 3 ping 64 ------- 0 0.0 4.0 -1 60
r 0.183024 2 1 ping 64 ------- 0 5.0 1.0 -1 51
+ 0.183024 1 2 ping 64 ------- 0 1.0 5.0 -1 65
- 0.183024 1 2 ping 64 ------- 0 1.0 5.0 -1 65
r 0.183048 2 3 ping 64 ------- 0 0.0 4.0 -1 56
+ 0.183048 3 4 ping 64 ------- 0 0.0 4.0 -1 56
- 0.183048 3 4 ping 64 ------- 0 0.0 4.0 -1 56
r 0.184024 1 2 ping 64 ------- 0 1.0 5.0 -1 61
+ 0.184024 2 3 ping 64 ------- 0 1.0 5.0 -1 61
- 0.184024 2 3 ping 64 ------- 0 1.0 5.0 -1 61
r 0.184048 3 4 ping 64 ------- 0 0.0 4.0 -1 52
r 0.184536 2 3 ping 64 ------- 0 1.0 5.0 -1 57
+ 0.184536 3 5 ping 64 ------- 0 1.0 5.0 -1 57
- 0.184536 3 5 ping 64 ------- 0 1.0 5.0 -1 57
r 0.185536 3 5 ping 64 ------- 0 1.0 5.0 -1 53
+ 0.19 4 3 ping 64 ------- 0 4.0 0.0 -1 66
- 0.19 4 3 ping 64 ------- 0 4.0 0.0 -1 66
+ 0.19 5 3 ping 64 ------- 0 5.0 1.0 -1 67
- 0.19 5 3 ping 64 ------- 0 5.0 1.0 -1 67
r 0.191 4 3 ping 64 ------- 0 4.0 0.0 -1 62
+ 0.191 3 2 ping 64 ------- 0 4.0 0.0 -1 62
- 0.191 3 2 ping 64 ------- 0 4.0 0.0 -1 62
r 0.191 5 3 ping 64 ------- 0 5.0 1.0 -1 63
+ 0.191 3 2 ping 64 ------- 0 5.0 1.0 -1 63
r 0.191512 3 2 ping 64 ------- 0 4.0 0.0 -1 58
+ 0.191512 2 0 ping 64 ------- 0 4.0 0.0 -1 58
- 0.191512 2 0 ping 64 ------- 0 4.0 0.0 -1 58
- 0.191512 3 2 ping 64 ------- 0 5.0 1.0 -1 63
r 0.192024 2 0 ping 64 ------- 0 4.0 0.0 -1 54
+ 0.192024 0 2 ping 64 ------- 0 0.0 4.0 -1 68
- 0.192024 0 2 ping 64 ------- 0 0.0 4.0 -1 68
r 0.192024 3 2 ping 64 ------- 0 5.0 1.0 -1 59
+ 0.192024 2 1 ping 64 ------- 0 5.0 1.0 -1 59
- 0.192024 2 1 ping 64 ------- 0 5.0 1.0 -1 59
r 0.192536 0 2 ping 64 ------- 0 0.0 4.0 -1 64
+ 0.192536 2 3 ping 64 ------- 0 0.0 4.0 -1 64
- 0.192536 2 3 ping 64 ------- 0 0.0 4.0 -1 64
r 0.193024 2 1 ping 64 ------- 0 5.0 1.0 -1 55
+ 0.193024 1 2 ping 64 ------- 0 1.0 5.0 -1 69
- 0.193024 1 2 ping 64 ------- 0 1.0 5.0 -1 69
r 0.193048 2 3 ping 64 ------- 0 0.0 4.0 -1 60
+ 0.193048 3 4 ping 64 ------- 0 0.0 4.0 -1 60
- 0.193048 3 4 ping 64 ------- 0 0.0 4.0 -1 60
r 0.194024 1 2 ping 64 ------- 0 1.0 5.0 -1 65
+ 0.194024 2 3 ping 64 ------- 0 1.0 5.0 -1 65
- 0.194024 2 3 ping 64 ------- 0 1.0 5.0 -1 65
r 0.194048 3 4 ping 64 ------- 0 0.0 4.0 -1 56
r 0.194536 2 3 ping 64 ------- 0 1.0 5.0 -1 61
+ 0.194536 3 5 ping 64 ------- 0 1.0 5.0 -1 61
- 0.194536 3 5 ping 64 ------- 0 1.0 5.0 -1 61
r 0.195536 3 5 ping 64 ------- 0 1.0 5.0 -1 57
+ 0.2 4 3 ping 64 ------- 0 4.0 0.0 -1 70
- 0.2 4 3 ping 64 ------- 0 4.0 0.0 -1 70
+ 0.2 5 3 ping 64 ------- 0 5.0 1.0 -1 71
- 0.2 5 3 ping 64 ------- 0 5.0 1.0 -1 71
r 0.201 4 3 ping 64 ------- 0 4.0 0.0 -1 66
+ 0.201 3 2 ping 64 ------- 0 4.0 0.0 -1 66
- 0.201 3 2 ping 64 ------- 0 4.0 0.0 -1 66
r 0.201 5 3 ping 64 ------- 0 5.0 1.0 -1 67
+ 0.201 3 2 ping 64 ------- 0 5.0 1.0 -1 67
r 0.201512 3 2 ping 64 ------- 0 4.0 0.0 -1 62
+ 0.201512 2 0 ping 64 ------- 0 4.0 0.0 -1 62
- 0.201512 2 0 ping 64 ------- 0 4.0 0.0 -1 62
- 0.201512 3 2 ping 64 ------- 0 5.0 1.0 -1 67
r 0.202024 2 0 ping 64 ------- 0 4.0 0.0 -1 58
+ 0.202024 0 2 ping 64 ------- 0 0.0 4.0 -1 72
- 0.202024 0 2 ping 64 ------- 0 0.0 4.0 -1 72
r 0.202024 3 2 ping 64 ------- 0 5.0 1.0 -1 63
+ 0.202024 2 1 ping 64 ------- 0 5.0 1.0 -1 63
- 0.202024 2 1 ping 64 ------- 0 5.0 1.0 -1 63
r 0.202536 0 2 ping 64 ------- 0 0.0 4.0 -1 68
+ 0.202536 2 3 ping 64 ------- 0 0.0 4.0 -1 68
- 0.202536 2 3 ping 64 ------- 0 0.0 4.0 -1 68
r 0.203024 2 1 ping 64 ------- 0 5.0 1.0 -1 59
+ 0.203024 1 2 ping 64 ------- 0 1.0 5.0 -1 73
- 0.203024 1 2 ping 64 ------- 0 1.0 5.0 -1 73
r 0.203048 2 3 ping 64 ------- 0 0.0 4.0 -1 64
+ 0.203048 3 4 ping 64 ------- 0 0.0 4.0 -1 64
- 0.203048 3 4 ping 64 ------- 0 0.0 4.0 -1 64
r 0.204024 1 2 ping 64 ------- 0 1.0 5.0 -1 69
+ 0.204024 2 3 ping 64 ------- 0 1.0 5.0 -1 69
- 0.204024 2 3 ping 64 ------- 0 1.0 5.0 -1 69
r 0.204048 3 4 ping 64 ------- 0 0.0 4.0 -1 60
r 0.204536 2 3 ping 64 ------- 0 1.0 5.0 -1 65
+ 0.204536 3 5 ping 64 ------- 0 1.0 5.0 -1 65
- 0.204536 3 5 ping 64 ------- 0 1.0 5.0 -1 65
r 0.205536 3 5 ping 64 ------- 0 1.0 5.0 -1 61
+ 0.21 4 3 ping 64 ------- 0 4.0 0.0 -1 74
- 0.21 4 3 ping 64 ------- 0 4.0 0.0 -1 74
+ 0.21 5 3 ping 64 ------- 0 5.0 1.0 -1 75
- 0.21 5 3 ping 64 ------- 0 5.0 1.0 -1 75
r 0.211 4 3 ping 64 ------- 0 4.0 0.0 -1 70
+ 0.211 3 2 ping 64 ------- 0 4.0 0.0 -1 70
- 0.211 3 2 ping 64 ------- 0 4.0 0.0 -1 70
r 0.211 5 3 ping 64 ------- 0 5.0 1.0 -1 71
+ 0.211 3 2 ping 64 ------- 0 5.0 1.0 -1 71
r 0.211512 3 2 ping 64 ------- 0 4.0 0.0 -1 66
+ 0.211512 2 0 ping 64 ------- 0 4.0 0.0 -1 66
- 0.211512 2 0 ping 64 ------- 0 4.0 0.0 -1 66
- 0.211512 3 2 ping 64 ------- 0 5.0 1.0 -1 71
r 0.212024 2 0 ping 64 ------- 0 4.0 0.0 -1 62
+ 0.212024 0 2 ping 64 ------- 0 0.0 4.0 -1 76
- 0.212024 0 2 ping 64 ------- 0 0.0 4.0 -1 76
r 0.212024 3 2 ping 64 ------- 0 5.0 1.0 -1 67
+ 0.212024 2 1 ping 64 ------- 0 5.0 1.0 -1 67
- 0.212024 2 1 ping 64 ------- 0 5.0 1.0 -1 67
r 0.212536 0 2 ping 64 ------- 0 0.0 4.0 -1 72
+ 0.212536 2 3 ping 64 ------- 0 0.0 4.0 -1 72
- 0.212536 2 3 ping 64 ------- 0 0.0 4.0 -1 72
r 0.213024 2 1 ping 64 ------- 0 5.0 1.0 -1 63
+ 0.213024 1 2 ping 64 ------- 0 1.0 5.0 -1 77
- 0.213024 1 2 ping 64 ------- 0 1.0 5.0 -1 77
r 0.213048 2 3 ping 64 ------- 0 0.0 4.0 -1 68
+ 0.213048 3 4 ping 64 ------- 0 0.0 4.0 -1 68
- 0.213048 3 4 ping 64 ------- 0 0.0 4.0 -1 68
r 0.214024 1 2 ping 64 ------- 0 1.0 5.0 -1 73
+ 0.214024 2 3 ping 64 ------- 0 1.0 5.0 -1 73
- 0.214024 2 3 ping 64 ------- 0 1.0 5.0 -1 73
r 0.214048 3 4 ping 64 ------- 0 0.0 4.0 -1 64
r 0.214536 2 3 ping 64 ------- 0 1.0 5.0 -1 69
+ 0.214536 3 5 ping 64 ------- 0 1.0 5.0 -1 69
- 0.214536 3 5 ping 64 ------- 0 1.0 5.0 -1 69